# vtk DataFile Version 2.0
Unstructured grid legacy vtk file with point scalar data
ASCII

DATASET UNSTRUCTURED_GRID
POINTS 194 double
65.3118 114.342 93.6166
65.1207 113.394 102.34
68.8798 101.178 102.132
75.4166 104.438 106.655
71.3055 108.921 93.2265
73.1385 112.299 87.6024
72.2246 108.727 100.294
70.7329 106.692 114.105
67.4179 107.261 107.413
76.0945 115.29 96.7196
83.1229 90.735 101.496
83.7544 92.931 110.199
79.4004 92.989 116.604
82.7114 92.1876 124.306
77.0146 100.024 90.5031
82.3908 97.0768 96.147
83.5095 101.487 103.268
77.4583 96.0756 105.458
84.3584 102.63 112.259
77.3047 102.863 115.434
83.8399 99.2646 119.827
80.8103 99.9338 127.312
78.1448 112.406 81.6147
81.8524 110.915 88.8511
79.9698 110.869 103.141
81.6037 105.891 95.8892
84.4206 114.029 96.0548
76.9552 111.467 111.469
84.9436 111.379 110.417
82.2027 113.705 118.234
83.288 118.437 83.5993
82.0589 119.243 112.122
82.7486 123.794 104.839
94.271 85.6085 94.247
90.1879 93.1489 96.0834
94.9238 88.2916 102.904
89.4483 93.9889 104.591
87.3552 86.1873 107.77
93.3805 89.3566 111.238
88.4342 92.4221 118.164
87.7404 97.9215 89.2429
88.8046 102.045 96.343
92.6187 100.764 102.857
90.2932 96.5023 111.503
94.6494 101.401 109.695
91.9151 101.117 117.197
91.6896 97.462 122.551
88.8193 101.717 125.922
91.1806 103.481 132.911
89.6844 109.591 67.7696
90.7424 112.441 74.9968
89.0116 105.788 81.6772
88.3627 113.799 81.2647
91.9052 105.132 89.5183
90.1287 111.688 87.9682
87.807 108.947 101.258
93.4432 109.862 95.542
94.8102 114.183 102.319
88.9744 105.462 107.709
93.1094 108.605 113.905
87.2294 106.888 119.785
92.9391 112.252 121.087
89.9434 121.004 78.4284
87.8309 119.319 90.0228
91.6473 118.927 97.1041
86.7601 116.482 103.741
89.9079 121.832 109.429
89.6389 116.184 115.276
95.0971 123.923 90.9721
91.2913 127.579 97.6942
101.451 85.3184 89.5736
103.166 80.277 99.5379
101.306 82.5538 106.679
99.1376 92.8439 84.4753
101.626 92.191 80.6876
101.338 93.1327 91.854
101.615 87.3014 97.4584
98.0567 94.9677 98.8511
103.482 90.9285 104.755
101.598 91.4705 112.88
99.9073 91.8433 123.376
101.074 100.465 78.7218
95.8181 101.542 84.1884
95.5436 98.1816 91.5652
103.742 99.1204 86.6235
103.558 101.367 102.486
97.532 103.171 97.5837
97.5481 95.302 106.804
99.5167 103.575 113.3
100.054 97.8134 117.764
97.7413 104.381 121.656
99.211 102.429 129.849
95.4412 106.025 76.0146
97.8829 111.07 69.6387
103.925 109.159 75.6969
101.663 107.653 83.3634
96.3569 114.31 82.1748
99.9676 108.05 91.3402
101.841 109.093 99.427
97.3739 107.244 106.005
103.453 108.48 117.292
104.239 108.717 125.242
97.3178 117.843 74.7122
103.727 116.558 83.3582
98.0737 122.758 82.7026
95.8674 115.831 90.0244
103.765 121.087 90.7537
95.8561 122.302 103.442
100.526 115.664 96.2885
102.528 116.377 104.828
95.9515 115.537 110.151
103.757 115.63 113.129
103.582 123.31 110.658
97.6918 119.32 117.02
99.0005 115.943 124.404
103.202 122.826 124.121
102.237 122.907 132.537
99.7147 127.693 98.2888
103.641 130.031 105.513
95.9022 126.199 110.656
99.5689 130.521 111.916
106.569 85.3073 111.162
106.959 94.5474 79.2119
107.945 91.4492 87.2605
108.935 86.431 94.058
108.235 94.6785 94.9916
110.361 87.104 102.978
110.606 91.7992 110.201
106.155 88.0928 118.869
113.72 94.8125 122.938
105.725 94.7207 118.374
109.032 103.252 78.3871
112.851 98.884 89.0901
106.2 103.364 94.3875
109.831 95.6271 103.184
112.823 100.111 97.2449
105.217 98.6078 110.146
113.835 99.9003 109.526
107.075 101.912 120.75
110.621 96.1908 115.912
106.66 97.8652 127.932
113.647 102.704 126.006
105.538 104.67 132.943
104.97 113.279 64.7782
109.065 105.841 69.7733
109.823 111.094 81.8309
108.452 105.028 86.5884
114.015 109.14 89.7377
106.289 112.789 89.9701
108.338 113.405 98.8105
113.279 105.606 102.408
105.184 109.077 107.09
109.405 105.918 112.952
112.897 111.082 106.451
111.82 114.155 113.859
111.379 108.843 120.508
111.692 114.085 127.023
111.138 107.799 131.006
105.602 112.465 135.598
107.541 116.909 76.1496
110.745 119.075 85.8038
111.449 121.376 94.2978
105.072 121.449 99.5717
112.176 119.29 101.297
109.779 117.819 107.119
109.773 121.83 116.346
106.917 115.757 121.045
105.074 116.222 128.957
105.778 126.381 84.5309
107.76 128.844 96.754
110.693 125.565 104.841
120.269 94.7191 90.1358
117.142 93.7809 97.8423
117.689 94.1412 114.66
118.008 97.5172 82.2872
119.602 100.28 102.64
114.854 101.596 118.18
115.616 109.624 73.86
115.984 105.046 83.0209
122.497 106.787 78.0097
117.398 105.055 94.9749
116.474 113.672 98.8977
121.24 108.521 105.18
117.74 106.625 112.721
120.436 114.142 112.092
117.427 111.94 109.635
118.556 112.583 118.635
118.082 109.89 126.355
116.079 112.416 134.031
116.484 116.227 90.9704
118.516 118.069 105.74
115.442 118.561 122.798
121.956 119.995 117.033
123.476 115.822 124.555

POINT_DATA 194
SCALARS radius double
LOOKUP_TABLE default
5.08931
5.08931
5.03939
5.03939
4.38931
4.48931
5.08931
5.03939
5.03939
5.08931
5.0053
5.02621
5.02621
5.0053
5.07271
5.0053
5.07271
5.0053
5.08931
5.08931
5.07271
5.07271
5.07271
5.04636
5.07271
5.02621
5.04636
5.03939
5.08931
5.08931
5.02621
5.03939
5.0053
5.09809
5.0053
5.0053
5.0053
5.0053
5.02621
5.07271
5.04636
5.07271
5.09976
5.0053
5.03939
5.08931
4.23939
4.33939
5.08931
5.07271
5.0053
5.04636
5.02621
5.0053
5.02272
5.0053
5.0053
5.03939
5.09976
5.02621
5.08931
5.07271
5.07271
5.03939
5.03939
5.0053
5.08931
5.08931
5.03939
5.03939
5.02621
4.98931
4.98931
4.04636
4.14636
5.0053
5.0053
5.04636
5.09809
5.02621
5.0053
5.04636
5.04636
5.08931
5.09809
5.08931
5.08931
5.03939
5.03939
5.03939
5.08931
5.08931
5.0053
5.02621
5.0053
5.09809
5.02272
5.0053
5.0053
5.02621
5.08931
5.08931
5.07271
5.03939
5.09976
5.06831
5.07271
5.03939
5.09976
5.08931
5.08931
5.02621
5.07271
5.08931
5.08931
5.04768
5.04768
5.03939
5.07271
4.23939
4.33939
5.02621
5.04636
5.09809
5.08931
5.09809
5.08931
5.02621
5.07271
5.07271
4.42621
5.02621
5.09809
5.09809
5.07271
5.04636
5.07271
5.08931
5.03939
4.42621
5.0053
5.08931
4.84768
5.02621
5.07271
5.02621
5.02621
5.04636
5.02621
5.07271
5.07271
5.08931
5.09976
5.07271
5.02621
5.08931
4.94768
4.84768
5.04768
5.03939
5.03939
5.02621
5.08931
4.48931
4.58931
5.0053
5.08931
5.04768
5.09976
5.02621
5.07271
5.09809
5.03728
5.08931
5.07271
5.04636
5.03939
5.04636
5.07271
5.04636
4.94636
5.07271
5.04768
5.04768
4.12621
4.12621
5.03939
5.08931
4.94768
5.02621
5.07271
5.03939
5.03939
5.03939

SCALARS status double
LOOKUP_TABLE default
1
1
1
1
1
1
1
1
1
1
1
1
1
1
1
1
1
1
1
1
1
1
1
1
1
1
1
1
1
1
1
1
1
1
1
1
2
1
1
1
1
1
1
2
1
1
1
1
1
1
1
1
1
1
1
1
1
1
1
1
1
1
1
1
1
1
1
1
1
1
1
1
1
1
1
1
1
1
1
1
1
1
1
1
1
1
1
1
1
1
1
1
1
1
1
1
1
1
1
1
1
1
1
1
1
1
1
1
1
1
1
1
1
1
1
1
1
1
1
1
1
1
1
1
1
1
1
1
1
1
1
1
1
1
1
1
1
1
1
1
1
1
1
1
1
1
1
1
1
1
1
1
1
1
1
1
1
1
1
1
1
1
1
1
1
1
1
1
1
1
1
1
1
1
1
1
1
1
1
1
1
1
1
1
1
1
1
1
1
1
1
1
1
1

SCALARS concentration double
LOOKUP_TABLE default
34.86
34.4128
33.6655
35.4016
35.1842
35.1842
35.0611
34.7652
34.7652
36.6135
35.6299
35.0071
35.0071
34.7393
35.0223
36.1108
37.2165
35.6299
37.6381
35.3189
35.8637
35.8637
38.3969
37.9921
36.9403
36.4153
38.2926
36.4044
38.0035
38.0035
38.3969
38.2658
39.0578
35.5803
36.3559
36.5692
36.6892
35.1196
38.1319
35.9857
36.5237
37.5849
38.2641
36.6892
37.8005
37.8005
37.5292
37.5292
37.9769
39.3081
38.7479
38.7088
38.3969
38.9275
41.2466
38.09
38.9275
40.3223
38.2641
39.2791
37.4803
39.2266
40.7712
40.0877
40.4274
39.5437
40.0073
40.0073
42.2639
42.2639
36.8527
36.3726
36.3726
37.9313
37.9313
37.319
37.319
37.4989
38.1804
38.1319
37.5493
39.1766
38.4807
38.5913
40.4254
39.6258
38.5913
38.2641
37.8005
38.8638
38.9067
38.9213
39.4678
41.7097
41.4161
40.8589
41.2466
40.834
40.834
39.2791
40.1952
41.4952
40.7712
42.8912
43.53
41.2466
44.128
41.7013
41.2466
43.3481
41.2339
42.7336
44.0719
42.5431
41.0738
43.1466
43.1466
43.6386
45.6046
42.9547
42.9547
36.7162
39.391
38.7939
37.889
39.3469
37.9308
39.348
38.1336
40.1002
40.1002
41.4361
40.9289
41.6302
39.9137
41.6302
40.2067
41.7636
40.3782
40.1002
39.973
42.2831
42.393
41.7097
42.1442
43.5179
41.4361
43.2416
43.255
43.5434
43.3296
41.5773
42.5379
43.3296
44.8147
42.2831
44.3397
42.393
43.1466
44.2816
46.1285
46.3949
43.3481
44.8147
44.8147
45.7648
43.6875
43.1466
46.2952
46.3146
46.6918
40.9289
41.0433
41.2407
43.2328
43.081
42.0702
44.655
43.2328
44.655
41.6302
46.4606
44.0709
44.0709
46.8938
46.8938
45.4864
45.3167
44.3397
46.3949
46.8938
46.3666
48.8627
48.8627

SCALARS fibres double
LOOKUP_TABLE default
0
0
0
0
0
0
0
0
0
0
0
0
0
0
0
0
0
0
0
0
0
0
0
0
0
0
0
0
0
0
0
0
0
0
0
0
0
0
0
0
0
0
0
0
0
0
0
0
0
0
0
0
0
0
0
0
0
0
0
0
0
0
0
0
0
0
0
0
0
0
0
0
0
0
0
0
0
0
0
0
0
0
0
0
0
0
0
0
0
0
0
0
0
0
0
0
0
0
0
0
0
0
0
0
0
0
0
0
0
0
0
0
0
0
0
0
0
0
0
0
0
0
0
0
0
0
0
0
0
0
0
0
0
0
0
0
0
0
0
0
0
0
0
0
0
0
0
0
0
0
0
0
0
0
0
0
0
0
0
0
0
0
0
0
0
0
0
0
0
0
0
0
0
0
0
0
0
0
0
0
0
0
0
0
0
0
0
0
0
0
0
0
0
0

SCALARS phenot double
LOOKUP_TABLE default
7
7
7
7
7
7
7
7
7
7
7
7
7
7
7
7
7
7
7
7
7
7
7
7
7
7
7
7
7
7
7
7
7
7
7
7
7
7
7
7
7
7
7
7
7
7
7
7
7
7
7
7
7
7
7
7
7
7
7
7
7
7
7
7
7
7
7
7
7
7
7
7
7
7
7
7
7
7
7
7
7
7
7
7
7
7
7
7
7
7
7
7
7
7
7
7
7
7
7
7
7
7
7
7
7
7
7
7
7
7
7
7
7
7
7
7
7
7
7
7
7
7
7
7
7
7
7
7
7
7
7
7
7
7
7
7
7
7
7
7
7
7
7
7
7
7
7
7
7
7
7
7
7
7
7
7
7
7
7
7
7
7
7
7
7
7
7
7
7
7
7
7
7
7
7
7
7
7
7
7
7
7
7
7
7
7
7
7
7
7
7
7
7
7

SCALARS cont_pheno double
LOOKUP_TABLE default
0.5
0.5
0.5
0.5
0.5
0.5
0.5
0.5
0.5
0.5
0.5
0.5
0.5
0.5
0.5
0.5
0.5
0.5
0.5
0.5
0.5
0.5
0.5
0.5
0.5
0.5
0.5
0.5
0.5
0.5
0.5
0.5
0.5
0.5
0.5
0.5
0.45
0.5
0.5
0.5
0.5
0.5
0.5
0.45
0.5
0.5
0.5
0.5
0.5
0.5
0.5
0.5
0.5
0.5
0.5
0.5
0.5
0.5
0.5
0.5
0.5
0.5
0.5
0.5
0.5
0.5
0.5
0.5
0.5
0.5
0.5
0.5
0.5
0.5
0.5
0.5
0.5
0.5
0.5
0.5
0.5
0.5
0.5
0.5
0.5
0.5
0.5
0.5
0.5
0.5
0.5
0.5
0.5
0.5
0.5
0.5
0.5
0.5
0.5
0.5
0.5
0.5
0.5
0.5
0.5
0.5
0.5
0.5
0.5
0.5
0.5
0.5
0.5
0.5
0.5
0.5
0.5
0.5
0.5
0.5
0.5
0.5
0.5
0.5
0.5
0.5
0.5
0.5
0.5
0.5
0.5
0.5
0.5
0.5
0.5
0.5
0.5
0.5
0.5
0.5
0.5
0.5
0.5
0.5
0.5
0.5
0.5
0.5
0.5
0.5
0.5
0.5
0.5
0.5
0.5
0.5
0.5
0.5
0.5
0.5
0.5
0.5
0.5
0.5
0.5
0.5
0.5
0.5
0.5
0.5
0.5
0.5
0.5
0.5
0.5
0.5
0.5
0.5
0.5
0.5
0.5
0.5
0.5
0.5
0.5
0.5
0.5
0.5
0.5
0.5
0.5
0.55
0.5
0.5

SCALARS name double
LOOKUP_TABLE default
99
21
91
54
55
188
109
132
180
15
1
159
44
86
48
11
136
152
52
26
35
175
169
31
60
74
36
40
118
141
89
76
96
3
94
37
165
97
168
120
122
93
154
69
178
67
190
100
16
70
62
71
182
7
163
29
149
115
177
144
138
32
156
114
85
63
166
22
64
167
23
104
183
78
192
170
87
139
10
119
13
66
2
106
61
20
147
124
158
133
140
88
73
160
121
6
150
142
113
4
110
128
49
24
135
57
79
17
143
148
95
14
68
33
38
146
171
134
27
116
191
59
75
25
125
123
84
8
46
12
189
107
5
145
50
0
39
98
80
153
28
42
19
103
34
77
157
9
117
51
43
47
130
172
162
161
185
186
181
101
127
56
58
187
83
18
53
105
90
92
102
155
129
111
151
72
81
41
82
176
184
112
126
164
179
193
45
108
137
173
65
131
30
174

SCALARS interaction_phenotype double
LOOKUP_TABLE default
0
0
0
0
0
0
0
0
0
0
0
0
0
0
0
0
0
0
0
0
0
0
0
0
0
0
0
0
0
0
0
0
0
0
0
0
0
0
0
0
0
0
0
0
0
0
0
0
0
0
0
0
0
0
0
0
0
0
0
0
0
0
0
0
0
0
0
0
0
0
0
0
0
0
0
0
0
0
0
0
0
0
0
0
0
0
0
0
0
0
0
0
0
0
0
0
0
0
0
0
0
0
0
0
0
0
0
0
0
0
0
0
0
0
0
0
0
0
0
0
0
0
0
0
0
0
0
0
0
0
0
0
0
0
0
0
0
0
0
0
0
0
0
0
0
0
0
0
0
0
0
0
0
0
0
0
0
0
0
0
0
0
0
0
0
0
0
0
0
0
0
0
0
0
0
0
0
0
0
0
0
0
0
0
0
0
0
0
0
0
0
0
0
0

SCALARS vessel_interaction double
LOOKUP_TABLE default
0
0
0
0
0
0
0
0
0
0
0
0
0
0
0
0
0
0
0
0
0
0
0
0
0
0
0
0
0
0
0
0
0
0
0
0
0
0
0
0
0
0
0
0
0
0
0
0
0
0
0
0
0
0
0
0
0
0
0
0
0
0
0
0
0
0
0
0
0
0
0
0
0
0
0
0
0
0
0
0
0
0
0
0
0
0
0
0
0
0
0
0
0
0
0
0
0
0
0
0
0
0
0
0
0
0
0
0
0
0
0
0
0
0
0
0
0
0
0
0
0
0
0
0
0
0
0
0
0
0
0
0
0
0
0
0
0
0
0
0
0
0
0
0
0
0
0
0
0
0
0
0
0
0
0
0
0
0
0
0
0
0
0
0
0
0
0
0
0
0
0
0
0
0
0
0
0
0
0
0
0
0
0
0
0
0
0
0
0
0
0
0
0
0

SCALARS is_follower double
LOOKUP_TABLE default
1
1
1
1
1
1
1
1
1
1
1
1
1
1
1
1
1
1
1
1
1
1
1
1
1
1
1
1
1
1
1
1
1
1
1
1
1
1
1
1
1
1
1
1
1
1
1
1
1
1
1
1
1
1
1
1
1
1
1
1
1
1
1
1
1
1
1
1
1
1
1
1
1
1
1
1
1
1
1
1
1
1
1
1
1
1
1
1
1
1
1
1
1
1
1
1
1
1
1
1
1
1
1
1
1
1
1
1
1
1
1
1
1
1
1
1
1
1
1
1
1
1
1
1
1
1
1
1
1
1
1
1
1
1
1
1
1
1
1
1
1
1
1
1
1
1
1
1
1
1
1
1
1
1
1
1
1
1
1
1
1
1
1
1
1
1
1
1
1
1
1
1
1
1
1
1
1
1
1
1
1
1
1
1
1
1
1
1
1
1
1
1
1
1

SCALARS polarised double
LOOKUP_TABLE default
0
0
0
0
0
0
0
0
0
0
0
0
0
0
0
0
0
0
0
0
0
0
0
0
0
0
0
0
0
0
0
0
0
0
0
0
0
0
0
0
0
0
0
0
0
0
0
0
0
0
0
0
0
0
0
0
0
0
0
0
0
0
0
0
0
0
0
0
0
0
0
0
0
0
0
0
0
0
0
0
0
0
0
0
0
0
0
0
0
0
0
0
0
0
0
0
0
0
0
0
0
0
0
0
0
0
0
0
0
0
0
0
0
0
0
0
0
0
0
0
0
0
0
0
0
0
0
0
0
0
0
0
0
0
0
0
0
0
0
0
0
0
0
0
0
0
0
0
0
0
0
0
0
0
0
0
0
0
0
0
0
0
0
0
0
0
0
0
0
0
0
0
0
0
0
0
0
0
0
0
0
0
0
0
0
0
0
0
0
0
0
0
0
0

