# vtk DataFile Version 2.0
Unstructured grid legacy vtk file with point scalar data
ASCII

DATASET UNSTRUCTURED_GRID
POINTS 263 double
313.673 354.2 391.22
324.162 322.605 393.081
320.524 343.357 381.181
318.964 344.884 389.253
324.127 335.995 397.488
325.049 352.375 384.289
316.676 350.644 383.97
321.45 350.381 394.042
324.903 359.913 380.46
318.463 358.381 385.274
319.905 358.786 393.964
325.737 360.262 388.584
320.941 358.266 402.307
325.43 362.307 396.448
323.781 365.525 400.72
334.925 329.289 382.323
326.932 329.628 392.201
332.843 333.421 390.553
335.58 326.462 390.043
331.669 332.55 398.036
333.301 331.054 405.35
330.705 341.464 368.395
330.364 339.541 376.183
330.943 336.308 383.616
326.441 344.877 386.718
334.526 342.857 385.672
328.517 339.901 391.866
334.297 345.285 393.721
330.147 339.396 402.657
331.872 343.711 412.928
334.333 345.603 405.381
329.49 346.904 379.709
332.012 350.523 387.411
328.534 346.975 398.908
327.425 353.493 404.76
327.225 355.038 396.945
334.866 353.738 403.721
328.833 351.572 412.443
333.774 352.42 418.914
331.521 355.709 380.274
331.117 364.972 378.984
333.416 361.175 386.353
334.192 355.829 391.948
331.556 361.536 394.383
331.99 360.684 402.233
334.53 362.225 409.759
332.213 360.19 417.586
326.411 370.793 383.435
334.937 371.764 382.397
328.052 368.71 392.01
334.106 371.387 397.738
330.706 367.877 404.536
337.364 324.621 398.233
343.928 334.886 371.328
343.835 329.297 382.196
339.032 335.145 378.123
340.049 331.545 394.989
339.874 335.135 386.342
341.166 329.61 404.04
344.622 335.211 400.892
345.317 344.643 370.476
338.253 339.953 368.466
337.795 343.008 376.796
342.147 343.333 384.574
342.872 340.2 392.143
336.632 338.67 393.138
337.309 337.366 400.739
340.943 344.237 398.933
342.458 340.951 405.876
339.959 345.156 412.111
341.738 337.267 415.156
340.775 336.118 423.973
344.608 344.121 418.835
340.121 342.891 422.192
336.019 348.121 366.479
341.158 351.509 371.9
336.369 350.256 378.043
339.591 351.059 384.386
344.467 347.931 378.497
345.458 355.565 379.111
342.012 348.168 391.28
337.583 351.135 397.418
341.137 349.66 404.838
337.245 352.92 411.345
345.511 350.828 411.521
341.329 351.45 418.125
341.999 348.513 425.711
337.384 358.555 374.249
339.414 358.943 382.156
342.078 356.599 389.28
342.081 364.72 387.296
339.645 359.889 395.975
340.31 358.896 403.411
342.571 359.181 411.186
336.528 366.476 392.109
343.318 372.235 392.045
340.827 366.977 399.686
340.731 367.39 408.51
349.691 325.414 386.887
355.385 320.513 391.449
355.252 324.492 398.463
348.443 328.207 370.986
352.329 329.07 378.712
347.431 334.202 377.764
354.624 331.809 386.434
347.75 334.17 388.713
347.115 334.691 394.973
347.881 327.28 394.913
353.996 333.73 396.198
350.423 329.485 402.813
346.128 334.384 408.786
354.008 331.463 410.324
346.853 329.339 415.205
354.694 330.674 418.968
348.338 335.376 420.652
352.258 337.245 372.827
346.057 341.236 377.143
347.071 337.838 383.721
353.817 340.828 380.418
348.539 343.825 388.943
354.27 340.04 390.786
350.806 337.53 402.332
349.151 342.126 397.387
348.034 345.639 404.645
347.797 342.164 412.608
354.164 343.622 408.737
355.412 337.103 405.5
352.512 342.447 420.603
354.606 336.851 426.404
347.137 341.585 426.629
349.672 351.539 372.086
352.839 349.636 379.249
347.407 350.795 385.362
353.556 347.888 394.886
355.297 355.018 385.796
355.103 347.276 386.272
349.156 354.013 392.092
346.308 350.038 398.137
354.367 355.138 399.434
352.406 350.181 403.195
347.434 354.739 405.151
353.942 351.34 409.643
349.877 349.538 418.378
353.023 348.577 426.382
355.095 356.948 378.568
349.701 360.626 376.303
354.011 359.752 392.833
348.859 359.637 386.145
346.791 362.774 393.629
346.598 357.681 398.561
352.496 362.789 399.842
346.929 363.668 404.904
350.483 358.803 410.315
348.139 357.626 417.945
351.501 364.77 421.605
355.178 361.587 415.439
349.855 366.049 381.531
349.899 368.095 389.479
348.795 369.434 398.22
352.973 374.869 401.441
348.655 366.066 413.152
353.856 367.569 405.934
346.962 371.99 406.229
364.167 322.767 393.417
359.34 325.602 385.866
363.192 323.42 401.823
356.59 324.688 407
363.149 321.916 412.934
356.457 324.304 415.067
364.714 332.023 384.098
359.448 329.012 393.29
358.721 331.326 401.914
361.929 332.424 413.989
360.67 335.401 407.203
361.472 333.793 422.031
359.884 336.25 377.017
360.199 342.116 385.171
358.955 336.422 384.597
361.32 337.036 392.058
357.641 340.823 398.548
364.913 337.827 399.244
364.528 344.429 403.172
361.064 344.179 413.257
360.098 341.75 406.441
356.065 338.095 414.846
361.225 341.484 421.15
359.078 342.64 428.592
359.15 354.373 367.143
360.418 346.497 378.779
361.793 355.494 379.095
363.862 352.813 386.35
360.66 345.969 391.59
359.277 354.209 393.069
356.711 346.638 402.09
361.372 350.813 399.652
361.801 351.765 408.534
357.834 348.6 419.828
356.346 354.488 415.305
364.095 354.578 416.201
365.067 347.567 425.804
359.311 349.467 431.642
358.09 355.689 372.612
357.929 364.016 379.752
364.329 361.391 385.144
356.378 364.133 387.35
359.96 361.619 398.368
365.35 357.822 404.214
357.122 359.103 405.849
362.275 359.819 411.143
357.439 358.224 422.934
364.686 362.926 415.972
362.439 367.643 373.941
356.26 368.186 394.679
362.919 372.201 398.667
359.269 374.815 405.081
360.954 367.586 409.946
357.946 374.279 412.928
363.307 368.371 418.827
357.419 369.841 424.032
357.595 367.698 416.675
369.105 334.398 390.974
366.605 330.132 398.101
365.672 330.369 406.666
371.274 332.962 411.587
365.645 326.775 421.841
369.6 333.297 419.63
366.702 345.201 384.359
370.82 337.852 383.066
367.497 342.147 391.902
373.149 339.541 396.496
371.022 336.377 403.715
373.504 344.55 402.951
374.429 340.789 410.264
366.037 338.442 409.73
369.209 340.805 416.658
368.29 339.661 425.299
368.315 350.692 378.912
371.909 350.471 387.05
367.09 349.473 393.682
369.219 351.295 402.047
374.685 351.933 395.975
368.473 346.675 409.935
374.356 352.123 408.45
365.994 347.511 417.871
374.115 347.653 415.525
370.921 354.073 420.852
369.413 354.312 428.902
366.83 363.246 392.617
366.065 356.657 396.519
372.661 359.209 400.24
370.746 358.632 413.094
365.696 360.498 421.266
374.155 361.99 419.774
366.542 372.505 391.515
370.881 367.088 387.006
365.504 365.716 403.537
370.66 368.619 397.871
366.456 376.897 384.661
379.532 342.117 416.745
381.112 348.229 400.657
379.417 355.499 402.528
382.44 351.335 409.299
378.185 355.298 415.568

POINT_DATA 263
SCALARS radius double
LOOKUP_TABLE default
5.07271
5.03939
5.07271
5.08931
5.09976
5.02621
5.08931
5.07271
5.02621
5.07271
5.0053
5.02621
5.04636
4.27271
4.27271
5.08931
5.03939
5.0053
5.08931
5.03939
5.03939
4.94768
4.84768
5.04636
5.07271
5.08931
5.0053
5.07271
5.09976
5.03939
5.03939
5.03939
5.0053
5.03939
5.02621
5.09809
5.02621
5.03728
5.03939
5.08931
5.07271
5.02621
5.07271
5.09809
5.04636
5.09809
5.03939
5.07271
5.07271
5.0053
5.0053
5.0053
5.08931
5.02621
5.09976
5.07271
5.08931
5.08931
5.07271
5.04636
5.08931
5.07271
5.09976
5.02621
5.0053
5.0053
5.02621
5.07271
5.07271
5.02621
5.08931
5.08931
4.33939
4.33939
5.07271
5.07271
5.0053
5.0053
5.08931
5.02621
5.07271
5.02621
5.07271
5.07271
5.02621
5.08931
5.08931
5.08931
5.09809
5.09809
5.07271
5.09809
5.02621
5.08931
5.09809
5.07271
5.0053
5.09809
5.08931
5.07271
5.04636
5.03939
5.09976
4.89976
5.07271
5.03939
5.03939
5.02621
5.03939
5.02621
5.02621
5.08931
5.08931
5.08931
5.03939
5.03939
5.08931
4.89976
5.03939
5.08931
5.09976
4.57271
5.04636
5.04636
5.07271
5.0053
4.57271
5.03939
5.03939
5.08931
5.08931
5.09976
5.04636
5.03939
5.03939
5.09976
5.04636
5.07271
5.02621
4.53939
5.02621
5.03939
5.07271
5.02621
4.64768
4.74768
5.02621
5.07271
5.04636
5.04636
5.09976
5.02621
5.03939
5.02621
5.04636
5.08931
5.0053
5.07271
5.07271
4.89976
5.08931
5.03939
5.08931
5.07271
5.07271
5.02621
5.02621
4.98931
4.88931
5.08931
5.02621
5.08931
5.02621
4.49976
5.07271
5.08931
4.64768
4.64768
5.09976
5.09976
5.0053
5.09976
5.08131
4.49976
5.07271
5.01614
4.79976
4.18931
5.08931
5.02621
5.02621
5.09976
5.02621
4.63939
5.08931
5.03939
5.01614
5.08931
5.03939
5.08131
4.79976
4.08931
5.08931
5.02621
5.0053
5.09976
5.03939
5.08931
5.02621
5.04636
4.3053
5.08931
5.03939
5.09976
4.89976
5.03939
5.08931
4.37271
5.0053
4.47271
5.07271
5.07271
5.03939
5.04768
5.04768
5.04768
5.08931
5.07271
5.02621
5.02621
5.03939
5.02621
5.08931
5.04768
5.05367
5.05367
5.02621
5.02621
5.04768
5.04768
5.08931
5.03939
5.03939
5.03939
5.08931
5.07271
5.08131
5.02621
5.03939
5.02621
5.07271
4.3053
5.07271
5.04768
5.09976
5.03939
5.09976
5.04768
5.08931
4.93939
5.03939
5.08931
5.07271

SCALARS status double
LOOKUP_TABLE default
1
1
1
1
1
1
1
1
1
1
1
1
1
1
1
1
1
1
1
1
1
1
1
1
1
1
1
1
1
1
1
1
1
1
1
1
1
1
1
1
1
1
1
1
1
1
1
1
1
2
1
1
1
1
1
1
1
1
1
1
1
1
1
1
1
1
1
1
1
1
1
1
1
1
1
1
1
1
1
1
1
1
1
1
1
1
1
1
1
1
1
1
1
1
1
1
1
1
1
1
1
1
1
1
1
1
1
1
1
1
2
1
2
2
1
1
1
1
1
1
1
1
1
1
1
1
1
1
1
1
1
1
1
1
1
1
1
1
1
1
1
1
1
1
1
1
1
1
1
1
1
1
1
1
1
1
1
1
1
1
1
1
1
1
1
1
1
1
1
1
1
1
1
1
1
1
1
1
1
1
1
1
1
1
1
1
1
1
1
1
1
1
1
1
1
1
1
1
1
1
1
1
1
1
1
1
1
1
1
1
1
1
1
1
1
1
1
1
1
1
1
1
1
1
1
1
1
1
1
1
1
1
1
1
1
1
1
1
1
1
1
1
1
1
1
1
1
1
1
1
1
1
1
1
1
1
1
1
1
1
1
1
1

SCALARS concentration double
LOOKUP_TABLE default
22.7948
20.7115
23.9523
26.0088
24.7893
26.0088
26.0088
24.6372
27.4985
24.7926
25.3076
27.4985
25.6008
28.6739
28.6739
23.8135
22.7121
25.0466
23.8135
23.8389
23.8389
26.637
26.637
24.9503
23.9523
27.191
25.0615
26.8561
24.7893
25.7634
27.1469
25.6426
27.7878
26.2501
28.028
27.9081
29.0834
27.3121
29.5534
27.6277
29.1142
30.2375
29.2077
27.9081
30.4598
30.2839
29.5534
28.5331
31.7859
28.6739
30.4598
30.4598
25.1657
26.8236
25.1842
26.2948
25.1657
26.1843
25.2854
27.3985
29.0333
27.5491
26.637
28.8276
27.7517
25.0466
26.6288
29.0282
28.8396
28.2872
26.8544
27.1125
28.9238
28.9238
27.5491
29.5953
29.5933
29.5933
31.4564
33.032
29.1279
29.0834
30.0725
29.6243
31.4174
30.0664
28.9238
30.3716
31.2636
31.2636
33.7559
31.2636
31.4294
32.5775
31.3311
36.5125
34.0205
33.5876
24.9508
25.1577
26.4282
26.3465
27.0738
28.5355
27.8986
27.5283
27.5283
26.2061
28.9764
26.1612
27.3797
28.2909
27.0525
27.9798
28.5308
29.3801
29.0333
28.5355
30.8238
30.1583
31.745
29.5002
30.1108
31.699
29.9468
32.1796
29.5002
29.9361
29.6804
29.8126
31.4564
34.001
31.5752
33.2477
34.9522
33.2479
31.5752
32.4555
35.6364
34.3721
32.6321
34.0993
31.8741
33.3387
34.001
34.001
36.6967
35.0895
31.2636
31.2636
38.7159
35.2716
35.1301
33.6239
37.2435
38.766
36.7014
37.3239
37.3239
42.1144
36.3058
39.6306
37.7193
27.3505
27.5055
27.0191
26.5581
26.3936
26.3936
30.4073
29.0427
28.9306
29.3554
30.9935
31.6883
30.7864
31.8618
31.8618
31.8618
31.745
31.9376
34.3815
34.1736
30.9935
30.718
33.6329
33.2482
37.7437
33.9771
37.9705
36.9102
33.2479
36.9922
34.3721
34.3721
36.5666
33.6329
35.8023
37.7552
36.4947
33.2482
37.7437
40.7491
41.317
39.1719
38.7159
39.7082
39.2982
40.6343
38.5264
42.1991
40.7491
40.1662
44.2716
42.1144
39.6306
42.7332
42.4624
42.4624
42.4624
31.8295
30.0833
29.2654
31.8873
31.8873
31.8873
34.4998
33.3551
35.0694
35.6895
32.5442
37.397
35.6033
31.8873
35.0047
34.5592
37.4228
37.9726
37.9037
37.9037
39.9859
38.1061
38.1061
37.7552
38.826
43.9149
39.7267
42.3526
39.7082
42.6538
41.8848
42.1991
43.9149
44.2716
46.311
43.2786
48.5937
44.2716
36.6042
41.4875
41.4875
41.6095
41.8848

SCALARS fibres double
LOOKUP_TABLE default
0
0
0
0
0
0
0
0
0
0
0
0
0
0
0
0
0
0
0
0
0
0
0
0
0
0
0
0
0
0
0
0
0
0
0
0
0
0
0
0
0
0
0
0
0
0
0
0
0
0
0
0
0
0
0
0
0
0
0
0
0
0
0
0
0
0
0
0
0
0
0
0
0
0
0
0
0
0
0
0
0
0
0
0
0
0
0
0
0
0
0
0
0
0
0
0
0
0
0
0
0
0
0
0
0
0
0
0
0
0
0
0
0
0
0
0
0
0
0
0
0
0
0
0
0
0
0
0
0
0
0
0
0
0
0
0
0
0
0
0
0
0
0
0
0
0
0
0
0
0
0
0
0
0
0
0
0
0
0
0
0
0
0
0
0
0
0
0
0
0
0
0
0
0
0
0
0
0
0
0
0
0
0
0
0
0
0
0
0
0
0
0
0
0
0
0
0
0
0
0
0
0
0
0
0
0
0
0
0
0
0
0
0
0
0
0
0
0
0
0
0
0
0
0
0
0
0
0
0
0
0
0
0
0
0
0
0
0
0
0
0
0
0
0
0
0
0
0
0
0
0
0
0
0
0
0
0
0
0
0
0
0
0

SCALARS phenot double
LOOKUP_TABLE default
7
7
7
7
7
7
7
7
7
7
7
7
7
7
7
7
7
7
7
7
7
7
7
7
7
7
7
7
7
7
7
7
7
7
7
7
7
7
7
7
7
7
7
7
7
7
7
7
7
7
7
7
7
7
7
7
7
7
7
7
7
7
7
7
7
7
7
7
7
7
7
7
7
7
7
7
7
7
7
7
7
7
7
7
7
7
7
7
7
7
7
7
7
7
7
7
7
7
7
7
7
7
7
7
7
7
7
7
7
7
7
7
7
7
7
7
7
7
7
7
7
7
7
7
7
7
7
7
7
7
7
7
7
7
7
7
7
7
7
7
7
7
7
7
7
7
7
7
7
7
7
7
7
7
7
7
7
7
7
7
7
7
7
7
7
7
7
7
7
7
7
7
7
7
7
7
7
7
7
7
7
7
7
7
7
7
7
7
7
7
7
7
7
7
7
7
7
7
7
7
7
7
7
7
7
7
7
7
7
7
7
7
7
7
7
7
7
7
7
7
7
7
7
7
7
7
7
7
7
7
7
7
7
7
7
7
7
7
7
7
7
7
7
7
7
7
7
7
7
7
7
7
7
7
7
7
7
7
7
7
7
7
7

SCALARS cont_pheno double
LOOKUP_TABLE default
0.5
0.5
0.5
0.5
0.5
0.5
0.5
0.5
0.5
0.5
0.5
0.5
0.5
0.5
0.5
0.5
0.5
0.5
0.5
0.5
0.5
0.5
0.5
0.5
0.5
0.5
0.5
0.5
0.5
0.5
0.5
0.5
0.5
0.5
0.5
0.5
0.5
0.5
0.5
0.5
0.5
0.5
0.5
0.5
0.5
0.5
0.5
0.5
0.5
0.45
0.5
0.5
0.5
0.5
0.5
0.5
0.5
0.5
0.5
0.5
0.5
0.5
0.5
0.5
0.5
0.5
0.5
0.5
0.5
0.5
0.5
0.5
0.5
0.5
0.5
0.5
0.5
0.5
0.5
0.5
0.5
0.5
0.5
0.5
0.5
0.5
0.5
0.5
0.5
0.5
0.5
0.5
0.5
0.5
0.5
0.5
0.5
0.5
0.5
0.55
0.5
0.5
0.5
0.5
0.55
0.5
0.5
0.5
0.5
0.5
0.45
0.5
0.45
0.45
0.5
0.5
0.5
0.5
0.5
0.5
0.5
0.5
0.5
0.5
0.5
0.5
0.5
0.5
0.5
0.5
0.5
0.5
0.5
0.5
0.5
0.5
0.5
0.5
0.5
0.5
0.5
0.5
0.5
0.5
0.5
0.5
0.5
0.5
0.5
0.5
0.5
0.5
0.5
0.5
0.5
0.5
0.5
0.5
0.5
0.5
0.5
0.5
0.5
0.55
0.55
0.5
0.5
0.5
0.5
0.5
0.5
0.5
0.5
0.5
0.5
0.5
0.5
0.5
0.5
0.5
0.5
0.5
0.5
0.5
0.5
0.5
0.5
0.55
0.5
0.55
0.5
0.5
0.5
0.5
0.5
0.5
0.5
0.5
0.5
0.5
0.5
0.55
0.5
0.5
0.5
0.5
0.5
0.5
0.5
0.5
0.5
0.5
0.5
0.5
0.5
0.5
0.5
0.5
0.5
0.5
0.5
0.5
0.5
0.5
0.5
0.5
0.5
0.5
0.5
0.5
0.5
0.5
0.5
0.5
0.5
0.5
0.5
0.5
0.5
0.5
0.5
0.5
0.5
0.5
0.5
0.5
0.5
0.5
0.5
0.5
0.5
0.5
0.5
0.5
0.5
0.5
0.5
0.5
0.5
0.5
0.5
0.5
0.5

SCALARS name double
LOOKUP_TABLE default
105
177
107
241
214
185
221
122
229
69
35
132
49
259
222
218
135
16
120
155
245
249
213
160
210
161
166
188
182
163
66
181
8
91
115
4
233
9
194
32
83
60
196
235
11
54
238
104
171
17
200
242
207
47
140
106
28
52
46
3
112
224
111
27
13
246
34
5
19
58
156
89
85
260
22
26
14
236
81
150
172
169
189
67
93
56
209
95
225
1
41
206
119
141
86
153
38
139
87
148
23
123
186
250
37
187
243
59
168
0
36
152
82
167
197
157
232
96
78
40
201
165
108
121
31
10
254
21
137
173
240
223
90
142
190
174
219
144
127
256
2
183
128
30
39
253
100
7
244
226
211
92
151
79
129
114
102
212
63
65
20
33
124
75
147
138
94
247
113
133
12
131
45
101
61
70
198
255
175
109
48
99
184
257
15
215
42
262
64
118
98
205
170
227
73
77
62
134
74
103
252
145
176
51
25
162
191
164
71
6
261
202
192
130
251
220
84
143
231
258
44
53
178
136
237
203
179
80
72
88
180
117
55
230
57
195
125
29
204
110
159
18
208
234
146
217
149
76
239
68
24
50
193
199
154
97
126
228
158
43
248
116
216

SCALARS interaction_phenotype double
LOOKUP_TABLE default
0
0
0
0
0
0
0
0
0
0
0
0
0
0
0
0
0
0
0
0
0
0
0
0
0
0
0
0
0
0
0
0
0
0
0
0
0
0
0
0
0
0
0
0
0
0
0
0
0
0
0
0
0
0
0
0
0
0
0
0
0
0
0
0
0
0
0
0
0
0
0
0
0
0
0
0
0
0
0
0
0
0
0
0
0
0
0
0
0
0
0
0
0
0
0
0
0
0
0
0
0
0
0
0
0
0
0
0
0
0
0
0
0
0
0
0
0
0
0
0
0
0
0
0
0
0
0
0
0
0
0
0
0
0
0
0
0
0
0
0
0
0
0
0
0
0
0
0
0
0
0
0
0
0
0
0
0
0
0
0
0
0
0
0
0
0
0
0
0
0
0
0
0
0
0
0
0
0
0
0
0
0
0
0
0
0
0
0
0
0
0
0
0
0
0
0
0
0
0
0
0
0
0
0
0
0
0
0
0
0
0
0
0
0
0
0
0
0
0
0
0
0
0
0
0
0
0
0
0
0
0
0
0
0
0
0
0
0
0
0
0
0
0
0
0
0
0
0
0
0
0
0
0
0
0
0
0
0
0
0
0
0
0

SCALARS vessel_interaction double
LOOKUP_TABLE default
0
0
0
0
0
0
0
0
0
0
0
0
0
0
0
0
0
0
0
0
0
0
0
0
0
0
0
0
0
0
0
0
0
0
0
0
0
0
0
0
0
0
0
0
0
0
0
0
0
0
0
0
0
0
0
0
0
0
0
0
0
0
0
0
0
0
0
0
0
0
0
0
0
0
0
0
0
0
0
0
0
0
0
0
0
0
0
0
0
0
0
0
0
0
0
0
0
0
0
0
0
0
0
0
0
0
0
0
0
0
0
0
0
0
0
0
0
0
0
0
0
0
0
0
0
0
0
0
0
0
0
0
0
0
0
0
0
0
0
0
0
0
0
0
0
0
0
0
0
0
0
0
0
0
0
0
0
0
0
0
0
0
0
0
0
0
0
0
0
0
0
0
0
0
0
0
0
0
0
0
0
0
0
0
0
0
0
0
0
0
0
0
0
0
0
0
0
0
0
0
0
0
0
0
0
0
0
0
0
0
0
0
0
0
0
0
0
0
0
0
0
0
0
0
0
0
0
0
0
0
0
0
0
0
0
0
0
0
0
0
0
0
0
0
0
0
0
0
0
0
0
0
0
0
0
0
0
0
0
0
0
0
0

SCALARS is_follower double
LOOKUP_TABLE default
1
1
1
1
1
1
1
1
1
1
1
1
1
1
1
1
1
1
1
1
1
1
1
1
1
1
1
1
1
1
1
1
1
1
1
1
1
1
1
1
1
1
1
1
1
1
1
1
1
1
1
1
1
1
1
1
1
1
1
1
1
1
1
1
1
1
1
1
1
1
1
1
1
1
1
1
1
1
1
1
1
1
1
1
1
1
1
1
1
1
1
1
1
1
1
1
1
1
1
1
1
1
1
1
1
1
1
1
1
1
1
1
1
1
1
1
1
1
1
1
1
1
1
1
1
1
1
1
1
1
1
1
1
1
1
1
1
1
1
1
1
1
1
1
1
1
1
1
1
1
1
1
1
1
1
1
1
1
1
1
1
1
1
1
1
1
1
1
1
1
1
1
1
1
1
1
1
1
1
1
1
1
1
1
1
1
1
1
1
1
1
1
1
1
1
1
1
1
1
1
1
1
1
1
1
1
1
1
1
1
1
1
1
1
1
1
1
1
1
1
1
1
1
1
1
1
1
1
1
1
1
1
1
1
1
1
1
1
1
1
1
1
1
1
1
1
1
1
1
1
1
1
1
1
1
1
1
1
1
1
1
1
1

SCALARS polarised double
LOOKUP_TABLE default
0
0
0
0
0
0
0
0
0
0
0
0
0
0
0
0
0
0
0
0
0
0
0
0
0
0
0
0
0
0
0
0
0
0
0
0
0
0
0
0
0
0
0
0
0
0
0
0
0
0
0
0
0
0
0
0
0
0
0
0
0
0
0
0
0
0
0
0
0
0
0
0
0
0
0
0
0
0
0
0
0
0
0
0
0
0
0
0
0
0
0
0
0
0
0
0
0
0
0
0
0
0
0
0
0
0
0
0
0
0
0
0
0
0
0
0
0
0
0
0
0
0
0
0
0
0
0
0
0
0
0
0
0
0
0
0
0
0
0
0
0
0
0
0
0
0
0
0
0
0
0
0
0
0
0
0
0
0
0
0
0
0
0
0
0
0
0
0
0
0
0
0
0
0
0
0
0
0
0
0
0
0
0
0
0
0
0
0
0
0
0
0
0
0
0
0
0
0
0
0
0
0
0
0
0
0
0
0
0
0
0
0
0
0
0
0
0
0
0
0
0
0
0
0
0
0
0
0
0
0
0
0
0
0
0
0
0
0
0
0
0
0
0
0
0
0
0
0
0
0
0
0
0
0
0
0
0
0
0
0
0
0
0

