# vtk DataFile Version 2.0
Unstructured grid legacy vtk file with point scalar data
ASCII

DATASET UNSTRUCTURED_GRID
POINTS 134 double
325.389 343.42 386.301
320.642 355.254 384.803
317.618 351.608 391.621
325.352 350.779 389.975
322.831 358.056 392.647
321.543 358.756 400.219
334.694 338.438 393.038
331.078 355.164 383.131
333.022 348.568 389.304
331.101 355.333 394.117
333.091 346.904 397.738
334.604 354.396 401.356
333.269 354.132 409.483
329.185 363.719 385.32
328.341 359.81 389.472
329.583 364.184 395.451
334.835 363.057 403.097
328.198 370.309 383.575
343.646 335.169 387.85
336.618 330.919 388.89
340.799 333.053 395.954
340.844 333.783 404.232
345.311 335.882 372.708
336.172 345.148 370.859
342.867 344.395 384.315
341.381 337.365 380.082
336.584 344.401 379.324
345.548 343.69 376.666
339.818 345.194 391.817
339.059 341.027 399.623
344.159 345.009 404.806
340.821 342.977 412.52
343.009 338.432 419.646
340.568 350.837 375.952
338.842 351.412 384.78
338.957 353.844 393.044
340.627 349.204 399.135
341.587 353.16 406.11
335.975 346.762 405.543
340.823 352.242 414.079
344.343 346.686 419.159
336.066 358.554 376.245
336.086 359.484 387.636
337.564 362.019 395.214
341.794 358.087 400.004
339.046 360.314 410.267
342.987 365.8 401.199
347.43 331.655 379.224
348.79 328.337 386.686
349.651 333.439 393.369
353.314 326.976 397.913
349.926 331.922 404.286
349.32 334.212 415.342
350.825 338.561 381.665
348.103 341.546 389.69
353.981 340.049 395.28
346.673 337.819 399.497
353.187 339.788 404.078
347.422 345.599 396.44
346.349 337.411 408.433
349.106 343.34 410.715
351.273 341.404 419.928
347.629 351.126 380.781
346.305 350.381 389.28
354.682 349.081 389.628
355.18 355.566 394.724
347.249 352.432 400.277
351.284 346.898 403.495
354.256 354.162 402.187
348.808 352.507 408.71
351.597 347.786 414.684
348.915 354.755 416.924
350.936 348.748 423.772
349.277 359.633 383.445
346.587 364.941 390.342
354.33 361.902 389.773
347.139 357.39 393.686
350.944 364.775 397.33
348.365 359.525 403.926
354.719 357.934 410.165
347.011 360.87 411.717
352.559 363.072 416.624
349.485 366.879 405.49
359.299 325.113 392.19
357.726 324.554 414.874
356.246 332.171 388.263
358.881 333.927 395.08
355.748 333.788 400.515
359.992 332.041 412.721
357.614 327.73 405.685
360.09 336.486 378.812
360.738 336.669 384.968
355.955 341.18 387.436
363.652 336.965 390.875
361.698 344.369 392.892
363.788 339.518 399.635
359.698 336.041 406.153
355.964 339.88 413.105
360.92 343.131 407.055
363.411 344.917 414.37
362.61 338.021 418.667
357.95 342.872 424.938
359.303 353.482 381.098
360.985 346.788 385.043
361.62 354.239 389.31
355.653 347.787 397.445
362.73 348.17 401.13
357.639 350.383 407.925
360.078 353.978 414.595
357.093 347.569 418.551
364.067 348.576 421.878
362.178 362.159 386.486
361.678 360.126 395.101
356.566 361.632 402.486
364.848 364.269 402.253
362.803 358.123 407.362
360.558 361.96 414.801
355.913 357.859 420.41
356.356 370.227 403.1
358.906 366.972 397.493
355.81 366.21 409.642
365.905 332.319 403.503
367.102 341.009 384.332
371.925 344.356 404.332
373.826 341.848 412.369
366.501 348.364 379.887
368.006 348.099 388.812
366.741 355.001 399.452
369.241 346.087 396.711
374.196 351.741 400.446
365.96 350.372 408.583
374.093 350.592 409.062
367.381 356.782 414.772
366.072 367.352 394.569

POINT_DATA 134
SCALARS radius double
LOOKUP_TABLE default
5.0053
5.07271
5.07271
5.0053
5.0053
5.04636
5.09809
5.08931
5.04636
5.03728
5.08931
5.02621
5.03728
4.47271
4.47271
5.04636
5.09809
5.0053
5.02621
5.02621
5.07271
5.07271
5.02621
5.0053
5.02621
5.07271
5.02621
5.02621
5.04636
5.02621
5.07271
5.02621
5.02621
5.07271
5.04636
5.08666
5.04636
5.07271
5.08931
5.02621
5.02621
5.08931
5.02621
5.09809
5.02621
5.03728
5.0053
5.08931
5.08931
5.02621
5.04636
5.02621
5.02621
5.08931
5.08931
5.08931
5.04636
5.04636
5.04636
5.02621
4.97271
5.02621
5.07271
5.09809
5.02621
5.02621
5.02621
5.04636
5.02621
5.07271
4.97271
5.02621
5.02621
5.0053
5.0053
5.0053
5.0053
5.0053
5.02621
5.08931
5.02621
4.84636
5.08931
5.0053
5.02621
5.0053
4.72621
4.72621
5.02621
5.07271
4.48931
4.48931
5.08931
5.07271
5.02621
5.0053
5.02621
5.07271
5.09976
5.01614
5.07271
5.08931
5.07271
5.02621
5.07271
5.02621
5.09976
5.03939
5.08931
5.06002
5.01614
5.07271
5.02621
5.02621
5.03939
5.07271
5.09809
4.74636
4.83939
4.83939
5.08931
5.07271
5.07271
5.02621
5.02621
5.02621
5.02621
5.02621
5.02621
5.02621
5.08931
5.02621
5.04636
5.03939

SCALARS status double
LOOKUP_TABLE default
1
1
1
1
1
1
1
1
1
1
1
1
1
1
1
1
1
1
1
1
1
1
1
1
1
1
1
1
1
1
1
1
1
1
1
1
1
1
1
1
1
1
1
1
1
1
1
1
1
1
1
1
2
1
1
1
1
1
1
2
1
1
1
1
1
1
1
1
1
1
1
1
1
1
1
1
1
1
1
1
1
1
1
1
1
1
1
1
1
1
1
1
1
1
1
1
1
1
1
1
1
1
1
1
1
1
1
1
1
1
1
1
1
1
1
1
1
1
1
1
1
1
1
1
1
1
1
1
1
1
1
1
1
1

SCALARS concentration double
LOOKUP_TABLE default
24.0844
24.7942
23.5194
25.321
25.9889
25.7322
25.3126
27.7847
26.8728
27.858
26.771
28.8221
28.3593
28.6346
27.787
28.9424
30.7367
29.2474
26.668
24.1581
25.5717
25.7747
27.2801
27.0407
28.8234
26.6542
27.0627
29.394
28.1989
27.0963
29.4342
28.0615
27.4487
29.5497
29.3295
29.9692
29.4743
30.7275
27.5602
30.2779
30.0704
29.9942
30.2151
31.3779
32.0497
31.5227
34.2712
26.6685
26.1631
27.5612
26.5497
27.2741
27.74
29.3183
29.4221
30.5223
28.1254
30.4009
30.4398
27.9202
30.4074
30.3512
32.0754
31.5618
33.5817
36.1975
32.4291
32.1451
35.4076
32.9792
32.2918
33.8864
32.4575
34.9804
35.4046
37.8854
33.8209
37.4122
34.9019
37.0314
34.8785
37.9739
37.5604
26.9519
26.5225
28.597
29.6674
28.9406
29.4055
27.4778
30.7793
30.9724
31.3534
31.6768
34.1355
32.6911
30.3001
31.0728
33.4136
35.0028
31.9557
32.6165
36.5361
34.5008
37.6024
33.5894
35.8293
35.3266
37.4144
34.1189
36.5614
41.7316
40.4923
38.9262
43.3817
40.2293
40.9927
37.4413
41.4081
41.9123
40.0452
30.4461
33.7889
36.5989
35.8525
36.6972
37.008
40.2038
36.9181
41.1139
37.8774
40.4647
41.3298
45.6975

SCALARS fibres double
LOOKUP_TABLE default
0
0
0
0
0
0
0
0
0
0
0
0
0
0
0
0
0
0
0
0
0
0
0
0
0
0
0
0
0
0
0
0
0
0
0
0
0
0
0
0
0
0
0
0
0
0
0
0
0
0
0
0
0
0
0
0
0
0
0
0
0
0
0
0
0
0
0
0
0
0
0
0
0
0
0
0
0
0
0
0
0
0
0
0
0
0
0
0
0
0
0
0
0
0
0
0
0
0
0
0
0
0
0
0
0
0
0
0
0
0
0
0
0
0
0
0
0
0
0
0
0
0
0
0
0
0
0
0
0
0
0
0
0
0

SCALARS phenot double
LOOKUP_TABLE default
7
7
7
7
7
7
7
7
7
7
7
7
7
7
7
7
7
7
7
7
7
7
7
7
7
7
7
7
7
7
7
7
7
7
7
7
7
7
7
7
7
7
7
7
7
7
7
7
7
7
7
7
7
7
7
7
7
7
7
7
7
7
7
7
7
7
7
7
7
7
7
7
7
7
7
7
7
7
7
7
7
7
7
7
7
7
7
7
7
7
7
7
7
7
7
7
7
7
7
7
7
7
7
7
7
7
7
7
7
7
7
7
7
7
7
7
7
7
7
7
7
7
7
7
7
7
7
7
7
7
7
7
7
7

SCALARS cont_pheno double
LOOKUP_TABLE default
0.5
0.5
0.5
0.5
0.5
0.5
0.5
0.5
0.5
0.5
0.5
0.5
0.5
0.5
0.5
0.5
0.5
0.5
0.5
0.5
0.5
0.5
0.5
0.5
0.5
0.5
0.5
0.5
0.5
0.5
0.5
0.5
0.5
0.5
0.5
0.5
0.5
0.5
0.5
0.5
0.5
0.5
0.5
0.5
0.5
0.5
0.5
0.5
0.5
0.5
0.5
0.5
0.45
0.5
0.5
0.5
0.5
0.5
0.5
0.45
0.5
0.5
0.5
0.5
0.5
0.5
0.5
0.5
0.5
0.5
0.5
0.5
0.5
0.5
0.5
0.5
0.5
0.5
0.5
0.5
0.5
0.5
0.5
0.55
0.5
0.55
0.5
0.5
0.5
0.5
0.5
0.5
0.5
0.5
0.5
0.5
0.5
0.5
0.5
0.5
0.5
0.5
0.55
0.5
0.5
0.5
0.5
0.5
0.5
0.5
0.5
0.5
0.5
0.5
0.5
0.5
0.5
0.5
0.5
0.5
0.5
0.5
0.5
0.5
0.5
0.5
0.5
0.5
0.5
0.5
0.5
0.5
0.5
0.5

SCALARS name double
LOOKUP_TABLE default
107
69
105
122
35
49
16
32
8
4
91
115
9
83
132
17
11
104
52
120
28
46
47
22
27
106
111
112
13
34
19
58
89
26
14
1
5
67
66
56
85
95
60
86
119
54
38
123
87
59
23
0
82
96
40
109
3
10
108
36
31
21
81
90
39
100
2
121
127
93
128
79
30
102
41
25
7
63
92
114
20
129
124
75
113
37
12
131
45
94
70
133
78
44
72
48
101
15
99
57
61
42
118
64
98
73
110
77
74
62
103
51
76
33
97
71
50
6
65
130
84
53
80
117
55
125
29
68
88
43
18
116
24
126

SCALARS interaction_phenotype double
LOOKUP_TABLE default
0
0
0
0
0
0
0
0
0
0
0
0
0
0
0
0
0
0
0
0
0
0
0
0
0
0
0
0
0
0
0
0
0
0
0
0
0
0
0
0
0
0
0
0
0
0
0
0
0
0
0
0
0
0
0
0
0
0
0
0
0
0
0
0
0
0
0
0
0
0
0
0
0
0
0
0
0
0
0
0
0
0
0
0
0
0
0
0
0
0
0
0
0
0
0
0
0
0
0
0
0
0
0
0
0
0
0
0
0
0
0
0
0
0
0
0
0
0
0
0
0
0
0
0
0
0
0
0
0
0
0
0
0
0

SCALARS vessel_interaction double
LOOKUP_TABLE default
0
0
0
0
0
0
0
0
0
0
0
0
0
0
0
0
0
0
0
0
0
0
0
0
0
0
0
0
0
0
0
0
0
0
0
0
0
0
0
0
0
0
0
0
0
0
0
0
0
0
0
0
0
0
0
0
0
0
0
0
0
0
0
0
0
0
0
0
0
0
0
0
0
0
0
0
0
0
0
0
0
0
0
0
0
0
0
0
0
0
0
0
0
0
0
0
0
0
0
0
0
0
0
0
0
0
0
0
0
0
0
0
0
0
0
0
0
0
0
0
0
0
0
0
0
0
0
0
0
0
0
0
0
0

SCALARS is_follower double
LOOKUP_TABLE default
1
1
1
1
1
1
1
1
1
1
1
1
1
1
1
1
1
1
1
1
1
1
1
1
1
1
1
1
1
1
1
1
1
1
1
1
1
1
1
1
1
1
1
1
1
1
1
1
1
1
1
1
1
1
1
1
1
1
1
1
1
1
1
1
1
1
1
1
1
1
1
1
1
1
1
1
1
1
1
1
1
1
1
1
1
1
1
1
1
1
1
1
1
1
1
1
1
1
1
1
1
1
1
1
1
1
1
1
1
1
1
1
1
1
1
1
1
1
1
1
1
1
1
1
1
1
1
1
1
1
1
1
1
1

SCALARS polarised double
LOOKUP_TABLE default
0
0
0
0
0
0
0
0
0
0
0
0
0
0
0
0
0
0
0
0
0
0
0
0
0
0
0
0
0
0
0
0
0
0
0
0
0
0
0
0
0
0
0
0
0
0
0
0
0
0
0
0
0
0
0
0
0
0
0
0
0
0
0
0
0
0
0
0
0
0
0
0
0
0
0
0
0
0
0
0
0
0
0
0
0
0
0
0
0
0
0
0
0
0
0
0
0
0
0
0
0
0
0
0
0
0
0
0
0
0
0
0
0
0
0
0
0
0
0
0
0
0
0
0
0
0
0
0
0
0
0
0
0
0

