# vtk DataFile Version 2.0
Unstructured grid legacy vtk file with point scalar data
ASCII

DATASET UNSTRUCTURED_GRID
POINTS 20 double
329.899 359.539 394.773
343.299 344.553 389.072
340.531 339.68 396.223
337.492 349.424 382.702
335.952 349.141 390.908
341.004 349.749 398.355
340.91 348.491 406.72
336.872 356.195 395.695
338.423 355.882 403.916
346.278 342.825 399.651
353.042 342.642 403.723
352.392 339.858 396.058
351.656 348.44 397.456
348.48 352.151 404.076
354.501 349.967 404.985
346.777 346.232 404.189
350.814 356.675 398.208
351.572 356.006 410.263
356.152 335.145 401.827
361.053 346.066 404.321

POINT_DATA 20
SCALARS radius double
LOOKUP_TABLE default
4.83728
5.09809
5.09809
5.09809
5.09809
5.08666
5.03728
4.93728
5.08666
4.29809
5.09809
5.09809
5.03728
4.49809
4.49809
4.29809
5.03728
5.03728
5.09809
5.09809

SCALARS status double
LOOKUP_TABLE default
1
1
1
1
1
1
1
1
1
1
1
1
1
1
1
1
1
1
1
1

SCALARS concentration double
LOOKUP_TABLE default
29.4697
28.6272
27.2543
28.2624
28.0427
29.5077
29.6259
29.4697
30.3324
29.5891
31.2776
30.0396
32.82
32.7708
32.7708
29.5891
35.0795
35.4301
29.51
34.2747

SCALARS fibres double
LOOKUP_TABLE default
0
0
0
0
0
0
0
0
0
0
0
0
0
0
0
0
0
0
0
0

SCALARS phenot double
LOOKUP_TABLE default
7
7
7
7
7
7
7
7
7
7
7
7
7
7
7
7
7
7
7
7

SCALARS cont_pheno double
LOOKUP_TABLE default
0.5
0.5
0.5
0.5
0.5
0.5
0.5
0.5
0.5
0.5
0.5
0.5
0.5
0.5
0.5
0.5
0.5
0.5
0.5
0.5

SCALARS name double
LOOKUP_TABLE default
17
13
16
14
8
1
9
4
11
3
10
12
5
2
18
19
7
6
0
15

SCALARS interaction_phenotype double
LOOKUP_TABLE default
0
0
0
0
0
0
0
0
0
0
0
0
0
0
0
0
0
0
0
0

SCALARS vessel_interaction double
LOOKUP_TABLE default
0
0
0
0
0
0
0
0
0
0
0
0
0
0
0
0
0
0
0
0

SCALARS is_follower double
LOOKUP_TABLE default
1
1
1
1
1
1
1
1
1
1
1
1
1
1
1
1
1
1
1
1

SCALARS polarised double
LOOKUP_TABLE default
0
0
0
0
0
0
0
0
0
0
0
0
0
0
0
0
0
0
0
0

