# vtk DataFile Version 2.0
Unstructured grid legacy vtk file with point scalar data
ASCII

DATASET UNSTRUCTURED_GRID
POINTS 101 double
319.994 354.755 386.409
325.004 358.209 391.755
322.416 358.201 400.128
335.167 339.643 392.552
331.99 355.082 382.408
332.16 348.002 390.228
331.38 355.22 395.457
334.315 353.246 409.17
335.148 358.327 376.415
328.656 364.141 387.42
335.559 358.884 389.126
330.434 364.272 395.966
334.641 363.939 403.776
341.162 333.709 395.507
341.912 334.103 403.985
336.654 345.185 371.742
342.038 344.345 383.556
342.558 336.88 387.965
340.96 344.721 391.597
340.069 341.14 399.564
341.469 342.889 412.195
343.581 339.01 419.169
339.74 351.356 377.241
338.312 351.495 385.716
341.549 353.464 392.547
336.675 347.375 404.321
341.635 354.292 404.387
336.279 348.444 396.976
344.42 348.328 398.363
345.018 346.196 405.62
341.808 352.067 412.509
343.021 364.831 400.213
338.241 358.328 398.467
338.963 360.212 409.902
349.49 332.517 384.675
349.438 333.476 393.13
354.833 329.367 399.001
348.738 334.065 414.258
347.699 340.178 378.815
350.133 339.734 385.108
347.46 341.691 389.816
355.438 341.11 390.049
354.248 336.097 404.341
347.279 340.628 396.509
351.994 343.539 402.247
347.57 338.408 407.716
350.48 344.952 411.277
352.97 340.283 417.843
347.593 349.694 380.576
348.498 348.242 391.647
350.482 351.176 401.466
353.638 354.819 399.323
349.923 352.804 414.334
348.734 353.045 407.536
351.21 348.169 424.63
346.608 346.647 417.847
347.837 362.292 389.431
354.55 358.762 391.745
348.429 356.196 395.21
352.007 363.59 396.713
348.368 359.444 402.659
346.78 360.201 410.79
354.442 362.013 408.017
354.229 357.557 418.986
359.316 324.837 392.888
356.632 332.714 389.723
358.889 332.298 413.658
358.428 330.217 406.242
356.367 338.7 382.443
363.735 337.194 390.218
361.252 344.181 393.709
356.391 337.729 397.105
360.996 343.039 401.828
357.81 340.886 409.871
361.786 338.88 417.256
358.792 343.346 423.316
355.875 349.41 390.261
360.499 345.891 385.364
358.506 355.119 390.316
357.071 349.169 398.193
364.32 353.089 399.426
355.639 349.099 407.457
357.524 355.15 411.218
363.763 350.279 406.942
363.389 346.569 414.527
365.308 355.367 413.441
357.968 346.021 405.502
355.868 348.572 417.258
363.127 361.963 387.904
362.287 359.047 394.818
356.163 358.153 400.291
361.064 363.409 399.519
362.207 358.96 405.429
359.806 362.236 414.77
356.801 367.356 402.575
365.608 332.715 403.832
366.919 341.157 383.09
367.828 345.534 397.879
372.79 344.208 409.304
368.094 346.487 389.587
373.764 348.982 402.145

POINT_DATA 101
SCALARS radius double
LOOKUP_TABLE default
5.0053
5.0053
5.04636
5.09809
4.78931
5.09809
5.03728
5.03728
4.88931
5.04636
5.02621
5.04636
5.09809
5.07271
5.07271
5.0053
5.07271
5.0053
5.04636
5.02621
5.02621
5.02621
5.07271
5.04636
5.08666
5.08931
5.0053
5.08931
5.09809
5.07271
5.02621
5.0053
5.09809
5.03728
5.02621
5.02621
5.04636
5.02621
5.07271
4.58931
4.58931
5.02621
5.07271
5.04636
5.09809
5.02621
5.0053
5.02621
5.07271
5.09809
5.07271
4.02621
5.02621
5.07271
5.02621
5.02621
5.04636
4.2053
5.0053
5.0053
5.02621
5.02621
5.02621
5.09809
5.0053
5.0053
5.07271
5.07271
5.02621
5.07271
5.02621
5.07271
5.0053
5.07271
5.07271
5.08931
5.02621
5.07271
4.2053
5.02621
5.02621
4.03939
5.02621
5.08931
5.06002
5.04636
4.13939
5.06002
5.07271
5.02621
4.12621
4.48931
5.07271
5.09809
4.58931
5.07271
5.07271
5.02621
5.07271
5.02621
5.07271

SCALARS status double
LOOKUP_TABLE default
1
1
1
1
1
1
1
1
1
1
1
1
1
1
1
1
1
1
1
1
1
1
1
1
1
1
1
1
1
1
1
1
1
1
1
1
1
2
1
1
1
1
1
1
1
2
1
1
1
1
1
1
1
1
1
1
1
1
1
1
1
1
1
1
1
1
1
1
1
1
1
1
1
1
1
1
1
1
1
1
1
1
1
1
1
1
1
1
1
1
1
1
1
1
1
1
1
1
1
1
1

SCALARS concentration double
LOOKUP_TABLE default
25.1202
26.4555
26.2885
25.9947
28.9535
27.2227
28.771
29.3534
28.9535
29.0321
29.5831
29.0321
30.724
25.9312
26.8275
27.7743
29.2952
27.0275
29.195
27.9563
29.1075
29.1075
29.6336
29.014
30.522
28.322
31.8922
28.322
31.5643
29.8503
31.2605
34.6594
30.724
32.2282
27.7145
27.7145
27.191
28.663
29.2848
30.2348
30.2348
31.1037
29.6577
29.0173
31.6649
28.663
33.0238
30.8661
29.2952
31.5643
32.708
37.0598
31.2605
32.708
31.8178
31.8178
35.0282
36.5676
34.0581
37.3014
36.1232
36.1232
36.1232
34.9696
28.9485
28.9485
28.7539
29.6577
30.2358
31.8658
31.1037
31.1037
33.93
32.5753
31.8049
33.5426
33.9601
34.7832
36.5676
33.9601
36.0077
35.5302
36.1232
35.5302
35.4265
38.7581
35.5302
34.2455
42.5854
40.4896
37.0598
40.4896
37.3876
39.5134
40.4896
30.1937
31.8658
35.0796
36.5528
35.0796
37.0127

SCALARS fibres double
LOOKUP_TABLE default
0
0
0
0
0
0
0
0
0
0
0
0
0
0
0
0
0
0
0
0
0
0
0
0
0
0
0
0
0
0
0
0
0
0
0
0
0
0
0
0
0
0
0
0
0
0
0
0
0
0
0
0
0
0
0
0
0
0
0
0
0
0
0
0
0
0
0
0
0
0
0
0
0
0
0
0
0
0
0
0
0
0
0
0
0
0
0
0
0
0
0
0
0
0
0
0
0
0
0
0
0

SCALARS phenot double
LOOKUP_TABLE default
7
7
7
7
7
7
7
7
7
7
7
7
7
7
7
7
7
7
7
7
7
7
7
7
7
7
7
7
7
7
7
7
7
7
7
7
7
7
7
7
7
7
7
7
7
7
7
7
7
7
7
7
7
7
7
7
7
7
7
7
7
7
7
7
7
7
7
7
7
7
7
7
7
7
7
7
7
7
7
7
7
7
7
7
7
7
7
7
7
7
7
7
7
7
7
7
7
7
7
7
7

SCALARS cont_pheno double
LOOKUP_TABLE default
0.5
0.5
0.5
0.5
0.5
0.5
0.5
0.5
0.5
0.5
0.5
0.5
0.5
0.5
0.5
0.5
0.5
0.5
0.5
0.5
0.5
0.5
0.5
0.5
0.5
0.5
0.5
0.5
0.5
0.5
0.5
0.5
0.5
0.5
0.5
0.5
0.5
0.45
0.5
0.5
0.5
0.5
0.5
0.5
0.5
0.45
0.5
0.5
0.5
0.5
0.5
0.5
0.5
0.5
0.5
0.5
0.5
0.5
0.5
0.5
0.5
0.5
0.5
0.5
0.55
0.55
0.5
0.5
0.5
0.5
0.5
0.5
0.5
0.5
0.5
0.5
0.5
0.5
0.5
0.5
0.5
0.5
0.5
0.5
0.5
0.5
0.5
0.5
0.5
0.5
0.5
0.5
0.5
0.5
0.5
0.5
0.5
0.5
0.5
0.5
0.5

SCALARS name double
LOOKUP_TABLE default
69
35
49
16
32
8
4
9
95
83
60
17
11
28
46
22
27
52
13
34
58
89
26
14
1
66
67
91
5
19
56
38
86
54
87
59
23
82
47
96
40
78
0
3
10
36
31
21
81
90
2
100
79
93
30
85
41
25
7
63
92
20
84
6
75
37
45
94
70
44
72
12
48
15
61
42
39
64
98
73
68
77
74
18
57
24
99
62
51
76
33
97
71
50
65
53
80
88
55
29
43

SCALARS interaction_phenotype double
LOOKUP_TABLE default
0
0
0
0
0
0
0
0
0
0
0
0
0
0
0
0
0
0
0
0
0
0
0
0
0
0
0
0
0
0
0
0
0
0
0
0
0
0
0
0
0
0
0
0
0
0
0
0
0
0
0
0
0
0
0
0
0
0
0
0
0
0
0
0
0
0
0
0
0
0
0
0
0
0
0
0
0
0
0
0
0
0
0
0
0
0
0
0
0
0
0
0
0
0
0
0
0
0
0
0
0

SCALARS vessel_interaction double
LOOKUP_TABLE default
0
0
0
0
0
0
0
0
0
0
0
0
0
0
0
0
0
0
0
0
0
0
0
0
0
0
0
0
0
0
0
0
0
0
0
0
0
0
0
0
0
0
0
0
0
0
0
0
0
0
0
0
0
0
0
0
0
0
0
0
0
0
0
0
0
0
0
0
0
0
0
0
0
0
0
0
0
0
0
0
0
0
0
0
0
0
0
0
0
0
0
0
0
0
0
0
0
0
0
0
0

SCALARS is_follower double
LOOKUP_TABLE default
1
1
1
1
1
1
1
1
1
1
1
1
1
1
1
1
1
1
1
1
1
1
1
1
1
1
1
1
1
1
1
1
1
1
1
1
1
1
1
1
1
1
1
1
1
1
1
1
1
1
1
1
1
1
1
1
1
1
1
1
1
1
1
1
1
1
1
1
1
1
1
1
1
1
1
1
1
1
1
1
1
1
1
1
1
1
1
1
1
1
1
1
1
1
1
1
1
1
1
1
1

SCALARS polarised double
LOOKUP_TABLE default
0
0
0
0
0
0
0
0
0
0
0
0
0
0
0
0
0
0
0
0
0
0
0
0
0
0
0
0
0
0
0
0
0
0
0
0
0
0
0
0
0
0
0
0
0
0
0
0
0
0
0
0
0
0
0
0
0
0
0
0
0
0
0
0
0
0
0
0
0
0
0
0
0
0
0
0
0
0
0
0
0
0
0
0
0
0
0
0
0
0
0
0
0
0
0
0
0
0
0
0
0

