# vtk DataFile Version 2.0
Unstructured grid legacy vtk file with point scalar data
ASCII

DATASET UNSTRUCTURED_GRID
POINTS 47 double
73.1211 111.204 100.243
77.8517 103.581 107.986
80.4381 107.12 98.5998
78.2073 110.805 106.166
94.5431 101.835 91.7411
88.6866 104.364 98.5235
94.9355 98.9789 99.345
94.9476 104.466 104.351
90.6985 99.182 107.171
88.0939 95.5582 112.958
87.2448 100.146 117.257
93.0896 102.9 121.575
90.9156 109.527 91.0537
92.4826 112.439 98.8041
94.9096 108.435 115.065
97.8536 93.2484 94.5245
103.796 92.3844 100.723
97.7308 94.8981 106.046
103.376 99.53 96.7498
102.535 103.026 103.012
99.1506 101.807 110.677
102.455 97.3135 113.006
101.658 96.5264 117.382
101.307 103.309 122.065
98.7103 108.062 87.5004
98.9079 107.154 97.5183
97.5751 111.471 105.94
102.796 109.435 112.58
101.989 111.293 119.619
99.0083 115.026 93.7842
102.273 115.246 101.676
96.4569 118.96 101.184
97.9292 119.082 109.393
106.906 102.906 81.8447
111.294 97.5241 94.0461
105.462 102.285 89.3574
105.534 96.8953 107.975
110.025 102.604 110.814
112.884 106.151 78.8097
107.608 106.991 95.2944
106.211 110.422 101.226
109.645 113.245 107.881
105.24 107.092 107.133
110.056 108.613 112.415
113.812 110.224 115.446
109.386 106.24 120.092
107.531 112.076 124.678

POINT_DATA 47
SCALARS radius double
LOOKUP_TABLE default
5.07271
4.72621
5.0053
4.82621
5.09809
5.04636
5.04636
5.04636
5.09809
4.44636
4.54636
5.07271
5.09809
5.09809
5.07271
5.03728
5.0053
5.09809
5.08666
4.87271
5.0053
4.0053
4.1053
5.0053
5.03728
5.09809
5.07271
5.02621
5.02621
5.07271
4.64636
5.02621
5.02621
4.79809
5.08666
5.03728
5.0053
5.0053
4.79809
5.03728
4.64636
5.09809
4.87271
4.12621
4.22621
4.72621
4.62621

SCALARS status double
LOOKUP_TABLE default
1
1
1
1
1
1
1
1
1
1
1
1
1
1
1
1
1
1
1
1
1
1
1
1
1
1
1
1
1
1
1
1
1
1
1
1
1
1
1
1
1
1
1
1
1
1
1

SCALARS concentration double
LOOKUP_TABLE default
38.9575
38.9575
38.9575
38.9575
38.9575
38.9575
38.9575
38.9575
38.9575
38.9575
38.9575
38.9575
38.9575
38.9575
38.9575
38.9575
38.9575
38.9575
38.9575
38.9575
38.9575
38.9575
38.9575
38.9575
38.9575
38.9575
38.9575
38.9575
38.9575
38.9575
38.9575
38.9575
38.9575
38.9575
38.9575
38.9575
38.9575
38.9575
38.9575
38.9575
38.9575
38.9575
38.9575
38.9575
38.9575
38.9575
38.9575

SCALARS fibres double
LOOKUP_TABLE default
0
0
0
0
0
0
0
0
0
0
0
0
0
0
0
0
0
0
0
0
0
0
0
0
0
0
0
0
0
0
0
0
0
0
0
0
0
0
0
0
0
0
0
0
0
0
0

SCALARS phenot double
LOOKUP_TABLE default
7
7
7
7
7
7
7
7
7
7
7
7
7
7
7
7
7
7
7
7
7
7
7
7
7
7
7
7
7
7
7
7
7
7
7
7
7
7
7
7
7
7
7
7
7
7
7

SCALARS cont_pheno double
LOOKUP_TABLE default
0.5
0.5
0.5
0.5
0.5
0.5
0.5
0.5
0.5
0.5
0.5
0.5
0.5
0.5
0.5
0.5
0.5
0.5
0.5
0.5
0.5
0.5
0.5
0.5
0.5
0.5
0.5
0.5
0.5
0.5
0.5
0.5
0.5
0.5
0.5
0.5
0.5
0.5
0.5
0.5
0.5
0.5
0.5
0.5
0.5
0.5
0.5

SCALARS name double
LOOKUP_TABLE default
21
26
15
40
2
11
37
29
1
44
35
16
31
36
32
3
23
10
0
20
4
46
13
28
6
7
22
14
38
24
27
17
33
34
5
25
8
12
41
9
43
18
39
45
30
42
19

SCALARS interaction_phenotype double
LOOKUP_TABLE default
0
0
0
0
0
0
0
0
0
0
0
0
0
0
0
0
0
0
0
0
0
0
0
0
0
0
0
0
0
0
0
0
0
0
0
0
0
0
0
0
0
0
0
0
0
0
0

SCALARS vessel_interaction double
LOOKUP_TABLE default
0
0
0
0
0
0
0
0
0
0
0
0
0
0
0
0
0
0
0
0
0
0
0
0
0
0
0
0
0
0
0
0
0
0
0
0
0
0
0
0
0
0
0
0
0
0
0

SCALARS is_follower double
LOOKUP_TABLE default
1
1
1
1
1
1
1
1
1
1
1
1
1
1
1
1
1
1
1
1
1
1
1
1
1
1
1
1
1
1
1
1
1
1
1
1
1
1
1
1
1
1
1
1
1
1
1

SCALARS polarised double
LOOKUP_TABLE default
0
0
0
0
0
0
0
0
0
0
0
0
0
0
0
0
0
0
0
0
0
0
0
0
0
0
0
0
0
0
0
0
0
0
0
0
0
0
0
0
0
0
0
0
0
0
0

