# vtk DataFile Version 2.0
Unstructured grid legacy vtk file with point scalar data
ASCII

DATASET UNSTRUCTURED_GRID
POINTS 30 double
334.325 347.797 393.497
328.35 360.84 394.174
335.685 355.877 395.472
344.404 342.904 383.505
344.192 344.719 391.811
344.136 336.354 393.765
337.434 340.234 395.426
344.508 344.48 404.304
339.783 346.115 372.99
337.85 352.448 378.717
339.138 349.253 386.773
340.434 349.682 399.088
338.496 349.233 407.673
338.881 356.986 403.491
355.117 338.62 395.458
347.719 340.406 398.144
353.34 342.799 402.948
350.496 345.298 410.489
349.107 348.407 398.107
354.028 351.161 404.653
346.135 352.861 405.22
350.513 359.629 396.251
351.223 359.379 404.57
352.478 357.297 412.392
356.282 335.003 403.215
355.931 330.379 396.216
356.471 352.761 396.428
360.196 346.695 399.525
360.817 345.932 405.956
359.783 352.983 410.028

POINT_DATA 30
SCALARS radius double
LOOKUP_TABLE default
5.09809
5.03728
5.03728
5.04636
5.04636
4.74636
5.09809
5.04636
5.0053
5.0053
5.04636
5.08666
5.03728
5.08666
5.09809
4.84636
5.09809
5.04636
5.03728
5.04636
5.04636
5.09809
5.04636
5.03728
5.04636
5.04636
5.09809
4.44636
4.34636
5.04636

SCALARS status double
LOOKUP_TABLE default
1
1
1
1
1
1
1
1
1
1
1
1
1
1
1
1
1
1
1
1
1
1
1
1
1
1
1
1
1
1

SCALARS concentration double
LOOKUP_TABLE default
28.0427
29.4697
29.4697
28.6272
28.6272
29.5891
27.2543
29.5891
28.2624
28.2624
28.2624
29.5077
29.6259
30.3324
30.0396
29.5891
31.2776
29.5891
32.82
32.7708
32.7708
35.0795
32.7708
35.4301
29.51
29.51
35.0795
34.2747
34.2747
32.7708

SCALARS fibres double
LOOKUP_TABLE default
0
0
0
0
0
0
0
0
0
0
0
0
0
0
0
0
0
0
0
0
0
0
0
0
0
0
0
0
0
0

SCALARS phenot double
LOOKUP_TABLE default
7
7
7
7
7
7
7
7
7
7
7
7
7
7
7
7
7
7
7
7
7
7
7
7
7
7
7
7
7
7

SCALARS cont_pheno double
LOOKUP_TABLE default
0.5
0.5
0.5
0.5
0.5
0.5
0.5
0.5
0.5
0.5
0.5
0.5
0.5
0.5
0.5
0.5
0.5
0.5
0.5
0.5
0.5
0.5
0.5
0.5
0.5
0.5
0.5
0.5
0.5
0.5

SCALARS name double
LOOKUP_TABLE default
8
17
4
27
13
28
16
19
22
26
14
1
9
11
12
3
10
21
5
18
2
7
20
6
0
23
25
29
15
24

SCALARS interaction_phenotype double
LOOKUP_TABLE default
0
0
0
0
0
0
0
0
0
0
0
0
0
0
0
0
0
0
0
0
0
0
0
0
0
0
0
0
0
0

SCALARS vessel_interaction double
LOOKUP_TABLE default
0
0
0
0
0
0
0
0
0
0
0
0
0
0
0
0
0
0
0
0
0
0
0
0
0
0
0
0
0
0

SCALARS is_follower double
LOOKUP_TABLE default
1
1
1
1
1
1
1
1
1
1
1
1
1
1
1
1
1
1
1
1
1
1
1
1
1
1
1
1
1
1

SCALARS polarised double
LOOKUP_TABLE default
0
0
0
0
0
0
0
0
0
0
0
0
0
0
0
0
0
0
0
0
0
0
0
0
0
0
0
0
0
0

