# vtk DataFile Version 2.0
Unstructured grid legacy vtk file with point scalar data
ASCII

DATASET UNSTRUCTURED_GRID
POINTS 9 double
338.944 349.992 391.087
339.903 347.754 399.263
337.819 355.658 397.137
346.229 345.078 404.382
354.984 339.092 401.208
352.372 346.727 397.822
348.932 353.155 403.424
351.772 354.844 395.85
351.659 355.725 411.524

POINT_DATA 9
SCALARS radius double
LOOKUP_TABLE default
5.08666
5.08666
5.02287
5.08666
5.08666
5.03728
5.03728
5.03728
5.03728

SCALARS status double
LOOKUP_TABLE default
1
1
1
1
1
1
1
1
1

SCALARS concentration double
LOOKUP_TABLE default
28.9172
28.9172
30.8212
29.8337
31.0667
32.697
33.1504
32.697
35.1158

SCALARS fibres double
LOOKUP_TABLE default
0
0
0
0
0
0
0
0
0

SCALARS phenot double
LOOKUP_TABLE default
7
7
7
7
7
7
7
7
7

SCALARS cont_pheno double
LOOKUP_TABLE default
0.5
0.5
0.5
0.5
0.5
0.5
0.5
0.5
0.5

SCALARS name double
LOOKUP_TABLE default
8
1
4
3
0
5
2
7
6

SCALARS interaction_phenotype double
LOOKUP_TABLE default
0
0
0
0
0
0
0
0
0

SCALARS vessel_interaction double
LOOKUP_TABLE default
0
0
0
0
0
0
0
0
0

SCALARS is_follower double
LOOKUP_TABLE default
1
1
1
1
1
1
1
1
1

SCALARS polarised double
LOOKUP_TABLE default
0
0
0
0
0
0
0
0
0

