# vtk DataFile Version 2.0
Unstructured grid legacy vtk file with point scalar data
ASCII

DATASET UNSTRUCTURED_GRID
POINTS 14 double
341.885 343.372 391.236
337.394 350.03 389.677
339.98 349.2 398.675
341.92 349.001 407.097
336.476 356.404 395.385
338.009 356.161 403.54
346.582 344.097 401.327
354.48 344.215 403.541
352.88 340.006 396.308
352.034 348.568 396.737
350.328 351.338 404.362
350.806 356.914 398.089
352.22 356.114 411.114
356.286 334.865 402.037

POINT_DATA 14
SCALARS radius double
LOOKUP_TABLE default
5.03728
5.03728
5.08666
5.03728
5.08666
5.08666
5.03728
5.03728
5.09809
5.03728
5.03728
5.03728
5.03728
5.09809

SCALARS status double
LOOKUP_TABLE default
1
1
1
1
1
1
1
1
1
1
1
1
1
1

SCALARS concentration double
LOOKUP_TABLE default
28.9524
28.9524
28.946
29.9528
29.7958
29.7958
30.1282
30.3382
30.3382
32.4076
33.2695
34.6548
35.0423
30.3382

SCALARS fibres double
LOOKUP_TABLE default
0
0
0
0
0
0
0
0
0
0
0
0
0
0

SCALARS phenot double
LOOKUP_TABLE default
7
7
7
7
7
7
7
7
7
7
7
7
7
7

SCALARS cont_pheno double
LOOKUP_TABLE default
0.5
0.5
0.5
0.5
0.5
0.5
0.5
0.5
0.5
0.5
0.5
0.5
0.5
0.5

SCALARS name double
LOOKUP_TABLE default
13
8
1
9
4
11
3
10
12
5
2
7
6
0

SCALARS interaction_phenotype double
LOOKUP_TABLE default
0
0
0
0
0
0
0
0
0
0
0
0
0
0

SCALARS vessel_interaction double
LOOKUP_TABLE default
0
0
0
0
0
0
0
0
0
0
0
0
0
0

SCALARS is_follower double
LOOKUP_TABLE default
1
1
1
1
1
1
1
1
1
1
1
1
1
1

SCALARS polarised double
LOOKUP_TABLE default
0
0
0
0
0
0
0
0
0
0
0
0
0
0

