# vtk DataFile Version 2.0
Unstructured grid legacy vtk file with point scalar data
ASCII

DATASET UNSTRUCTURED_GRID
POINTS 7 double
340.68 347.606 396.765
339.31 356.279 397.241
346.02 345.297 402.925
355.109 340.812 400.719
352.195 348.381 397.98
348.396 353.327 403.861
351.746 355.632 411.81

POINT_DATA 7
SCALARS radius double
LOOKUP_TABLE default
5.02287
5.02287
5.08666
5.08666
5.08666
5.03728
5.03728

SCALARS status double
LOOKUP_TABLE default
1
1
1
1
1
1
1

SCALARS concentration double
LOOKUP_TABLE default
28.9172
30.8212
29.8337
31.0667
32.697
33.1504
35.1158

SCALARS fibres double
LOOKUP_TABLE default
0
0
0
0
0
0
0

SCALARS phenot double
LOOKUP_TABLE default
7
7
7
7
7
7
7

SCALARS cont_pheno double
LOOKUP_TABLE default
0.5
0.5
0.5
0.5
0.5
0.5
0.5

SCALARS name double
LOOKUP_TABLE default
1
4
3
0
5
2
6

SCALARS interaction_phenotype double
LOOKUP_TABLE default
0
0
0
0
0
0
0

SCALARS vessel_interaction double
LOOKUP_TABLE default
0
0
0
0
0
0
0

SCALARS is_follower double
LOOKUP_TABLE default
1
1
1
1
1
1
1

SCALARS polarised double
LOOKUP_TABLE default
0
0
0
0
0
0
0

