# vtk DataFile Version 2.0
Unstructured grid legacy vtk file with point scalar data
ASCII

DATASET UNSTRUCTURED_GRID
POINTS 14 double
93.1933 99.8923 94.0971
89.6971 104.163 100.694
88.4244 96.9621 109.378
98.5689 94.085 97.1255
102.934 100.949 100.557
95.5034 98.3647 104.742
98.3566 103.352 111.603
102.779 97.6548 107.457
104.785 97.056 114.087
95.8512 106.414 89.0893
96.8742 106.963 103.907
103.513 109.445 108.142
108.216 99.9159 93.7156
105.451 108.89 99.7829

POINT_DATA 14
SCALARS radius double
LOOKUP_TABLE default
5.09809
5.09809
5.03728
5.03728
5.08666
5.03728
5.09809
4.54636
4.64636
5.08666
5.09809
5.09809
5.02287
5.08666

SCALARS status double
LOOKUP_TABLE default
1
1
1
1
1
1
1
1
1
1
1
1
1
1

SCALARS concentration double
LOOKUP_TABLE default
38.9575
38.9575
38.9575
38.9575
38.9575
38.9575
38.9575
38.9575
38.9575
38.9575
38.9575
38.9575
38.9575
38.9575

SCALARS fibres double
LOOKUP_TABLE default
0
0
0
0
0
0
0
0
0
0
0
0
0
0

SCALARS phenot double
LOOKUP_TABLE default
7
7
7
7
7
7
7
7
7
7
7
7
7
7

SCALARS cont_pheno double
LOOKUP_TABLE default
0.5
0.5
0.5
0.5
0.5
0.5
0.5
0.5
0.5
0.5
0.5
0.5
0.5
0.5

SCALARS name double
LOOKUP_TABLE default
2
11
1
3
0
10
4
8
13
6
7
12
5
9

SCALARS interaction_phenotype double
LOOKUP_TABLE default
0
0
0
0
0
0
0
0
0
0
0
0
0
0

SCALARS vessel_interaction double
LOOKUP_TABLE default
0
0
0
0
0
0
0
0
0
0
0
0
0
0

SCALARS is_follower double
LOOKUP_TABLE default
1
1
1
1
1
1
1
1
1
1
1
1
1
1

SCALARS polarised double
LOOKUP_TABLE default
0
0
0
0
0
0
0
0
0
0
0
0
0
0

