# vtk DataFile Version 2.0
Unstructured grid legacy vtk file with point scalar data
ASCII

DATASET UNSTRUCTURED_GRID
POINTS 56 double
324.354 357.479 391.417
323.566 358.417 399.677
333.296 348.585 394.429
334.775 356.368 383.617
329.898 363.633 393.429
334.347 357.012 395.932
344.292 334.357 392.528
343.461 344.785 384.262
341.389 339.465 388.85
336.696 340.963 394.852
341.517 344.475 401.105
343.673 337.252 403.729
338.466 346.087 372.669
340.041 350.615 379.407
343.537 345.727 392.726
338.275 349.98 387.727
340.828 352.199 398.08
338.43 349.658 406.667
337.626 358.031 403.691
345.345 361.545 402.032
341.582 357.543 406.61
354.688 334.262 392.02
355.431 335.276 403.601
349.848 340.971 380.855
349.442 340.235 388.821
348.518 340.308 397.239
353.101 343.794 403.492
345.859 344.974 407.989
352.245 343.158 413.521
349.962 337.163 408.644
355.466 354.957 391.03
348.499 348.451 398.862
345.779 353.22 405.106
352.747 350.367 409.101
347.294 349.667 415.789
349.258 360.455 389.797
349.908 356.67 397.65
352.613 358.229 406.4
351.312 356.436 414.636
355.812 328.86 398.293
362.851 332.605 404.603
358.71 331.357 410.611
362.106 337.292 390.825
364.304 344.444 394.961
357.198 339.922 397.058
361.851 344.552 402.423
359.215 344.319 409.339
358.666 351.618 403.828
356.521 348.078 396.181
361.309 352.115 411.379
359.716 345.942 416.905
357.156 357.894 400.08
360.984 362.25 395.62
358.567 359.609 412.994
369.495 345.025 401.802
371.198 344.644 406.551

POINT_DATA 56
SCALARS radius double
LOOKUP_TABLE default
5.04636
5.04636
5.09809
5.07271
5.09809
5.03728
4.7053
5.0053
4.7053
5.09809
5.07271
5.07271
5.0053
5.07271
5.04636
5.04636
5.08666
5.03728
4.13728
5.0053
4.13728
5.04636
5.0053
5.07271
5.07271
5.04636
5.09809
5.0053
5.02621
5.07271
5.04636
5.03728
5.04636
5.0053
5.0053
5.04636
5.04636
5.0053
5.09809
5.04636
4.67271
4.57271
5.0053
5.0053
5.0053
5.0053
5.0053
5.07271
5.07271
5.04636
5.02621
4.8053
4.9053
5.09809
4.07271
4.07271

SCALARS status double
LOOKUP_TABLE default
1
1
1
1
1
1
1
1
1
1
1
1
1
1
1
1
1
1
1
1
1
1
1
1
1
1
1
1
1
2
1
1
1
1
1
1
1
1
1
1
1
1
1
1
1
1
1
1
1
1
1
1
1
1
1
1

SCALARS concentration double
LOOKUP_TABLE default
28.0194
28.0194
27.1851
28.4892
28.0194
29.3832
26.8788
28.925
26.8788
26.3858
29.4793
29.4793
28.3807
29.3353
29.2921
28.8247
29.4679
28.7896
30.8273
36.1429
30.8273
30.41
29.2508
28.925
28.925
29.0005
31.4935
29.4793
30.9927
30.9927
35.827
31.9446
32.1622
33.5097
32.4955
35.5756
35.5756
36.1429
35.8464
28.0525
29.2508
29.2508
30.41
34.5339
30.41
34.4301
34.4301
34.6459
34.6459
37.0021
30.9927
35.827
35.827
35.8464
34.5339
34.5339

SCALARS fibres double
LOOKUP_TABLE default
0
0
0
0
0
0
0
0
0
0
0
0
0
0
0
0
0
0
0
0
0
0
0
0
0
0
0
0
0
0
0
0
0
0
0
0
0
0
0
0
0
0
0
0
0
0
0
0
0
0
0
0
0
0
0
0

SCALARS phenot double
LOOKUP_TABLE default
7
7
7
7
7
7
7
7
7
7
7
7
7
7
7
7
7
7
7
7
7
7
7
7
7
7
7
7
7
7
7
7
7
7
7
7
7
7
7
7
7
7
7
7
7
7
7
7
7
7
7
7
7
7
7
7

SCALARS cont_pheno double
LOOKUP_TABLE default
0.5
0.5
0.5
0.5
0.5
0.5
0.5
0.5
0.5
0.5
0.5
0.5
0.5
0.5
0.5
0.5
0.5
0.5
0.5
0.5
0.5
0.55
0.5
0.5
0.5
0.5
0.5
0.5
0.5
0.45
0.5
0.5
0.5
0.5
0.5
0.5
0.5
0.5
0.5
0.5
0.5
0.5
0.5
0.5
0.5
0.5
0.5
0.5
0.5
0.5
0.5
0.5
0.5
0.5
0.5
0.5

SCALARS name double
LOOKUP_TABLE default
35
49
8
32
17
4
28
27
52
16
34
46
22
26
13
14
1
9
11
38
54
37
0
47
40
3
10
19
21
36
25
5
2
31
30
41
7
20
6
23
53
45
44
29
12
48
15
18
39
24
42
33
51
50
43
55

SCALARS interaction_phenotype double
LOOKUP_TABLE default
0
0
0
0
0
0
0
0
0
0
0
0
0
0
0
0
0
0
0
0
0
0
0
0
0
0
0
0
0
0
0
0
0
0
0
0
0
0
0
0
0
0
0
0
0
0
0
0
0
0
0
0
0
0
0
0

SCALARS vessel_interaction double
LOOKUP_TABLE default
0
0
0
0
0
0
0
0
0
0
0
0
0
0
0
0
0
0
0
0
0
0
0
0
0
0
0
0
0
0
0
0
0
0
0
0
0
0
0
0
0
0
0
0
0
0
0
0
0
0
0
0
0
0
0
0

SCALARS is_follower double
LOOKUP_TABLE default
1
1
1
1
1
1
1
1
1
1
1
1
1
1
1
1
1
1
1
1
1
1
1
1
1
1
1
1
1
1
1
1
1
1
1
1
1
1
1
1
1
1
1
1
1
1
1
1
1
1
1
1
1
1
1
1

SCALARS polarised double
LOOKUP_TABLE default
0
0
0
0
0
0
0
0
0
0
0
0
0
0
0
0
0
0
0
0
0
0
0
0
0
0
0
0
0
0
0
0
0
0
0
0
0
0
0
0
0
0
0
0
0
0
0
0
0
0
0
0
0
0
0
0

