# vtk DataFile Version 2.0
Unstructured grid legacy vtk file with point scalar data
ASCII

DATASET UNSTRUCTURED_GRID
POINTS 20 double
81.7071 105.965 101.151
89.621 103.622 100.219
90.0892 97.2256 109.701
98.285 93.7217 97.3466
95.4947 101.556 95.1532
102.732 101.157 99.3727
96.1744 99.098 103.67
100.398 103.846 109.296
104.13 96.7975 106.44
103.386 97.9054 114.518
97.8194 104.063 117.583
96.1888 107.424 89.2956
97.3182 107.269 101.661
99.8728 112.041 110.039
100.077 115.146 102.06
108.331 100.455 93.1832
105.168 109.24 98.3832
107.842 105.715 110.361
107.062 111.988 105.858
108.376 107.66 116.523

POINT_DATA 20
SCALARS radius double
LOOKUP_TABLE default
5.04636
5.04636
5.03728
5.03728
5.09809
5.08666
5.03728
5.04636
5.04636
5.04636
5.04636
5.08666
5.09809
5.0053
5.0053
5.02287
5.03728
4.5053
5.03728
4.5053

SCALARS status double
LOOKUP_TABLE default
1
1
1
1
1
1
1
1
1
1
1
1
1
1
1
1
1
1
1
1

SCALARS concentration double
LOOKUP_TABLE default
38.9575
38.9575
38.9575
38.9575
38.9575
38.9575
38.9575
38.9575
38.9575
38.9575
38.9575
38.9575
38.9575
38.9575
38.9575
38.9575
38.9575
38.9575
38.9575
38.9575

SCALARS fibres double
LOOKUP_TABLE default
0
0
0
0
0
0
0
0
0
0
0
0
0
0
0
0
0
0
0
0

SCALARS phenot double
LOOKUP_TABLE default
7
7
7
7
7
7
7
7
7
7
7
7
7
7
7
7
7
7
7
7

SCALARS cont_pheno double
LOOKUP_TABLE default
0.5
0.5
0.5
0.5
0.5
0.5
0.5
0.5
0.5
0.5
0.5
0.5
0.5
0.5
0.5
0.5
0.5
0.5
0.5
0.5

SCALARS name double
LOOKUP_TABLE default
15
11
1
3
2
0
10
4
8
13
16
6
7
14
17
5
9
12
18
19

SCALARS interaction_phenotype double
LOOKUP_TABLE default
0
0
0
0
0
0
0
0
0
0
0
0
0
0
0
0
0
0
0
0

SCALARS vessel_interaction double
LOOKUP_TABLE default
0
0
0
0
0
0
0
0
0
0
0
0
0
0
0
0
0
0
0
0

SCALARS is_follower double
LOOKUP_TABLE default
1
1
1
1
1
1
1
1
1
1
1
1
1
1
1
1
1
1
1
1

SCALARS polarised double
LOOKUP_TABLE default
0
0
0
0
0
0
0
0
0
0
0
0
0
0
0
0
0
0
0
0

