# vtk DataFile Version 2.0
Unstructured grid legacy vtk file with point scalar data
ASCII

DATASET UNSTRUCTURED_GRID
POINTS 110 double
320.414 355.543 384.725
319.219 352.239 391.297
324.395 358.259 391.501
322.859 358.411 399.877
334.736 338.828 393.181
331.868 355.548 382.577
332.412 348.169 390.648
328.551 346.151 387.87
330.892 355.112 395.534
335.367 348.361 397.073
333.975 353.523 408.976
335.709 358.664 375.679
329.216 362.94 387.716
330.87 363.526 395.692
334.255 363.565 403.965
329.361 369.131 384.214
342.352 335.598 388.765
341.32 334.039 395.596
341.473 333.803 404.138
336.799 345.505 371.937
342.245 343.871 383.475
342.147 337.174 383.387
340.134 345.067 391.349
339.676 341.124 399.783
340.666 343.267 412.349
343.555 338.718 418.971
339.956 350.775 377.463
337.987 350.643 385.527
340.631 353.655 392.376
336.685 347.042 404.819
341.63 353.776 404.044
342.5 348.152 398.703
344.822 346.106 405.628
341.62 351.612 412.525
335.849 359.377 389.465
342.747 365.405 400.246
338.14 358.813 398.103
339.649 359.9 409.241
349.547 331.307 384.724
349.301 333.349 392.939
353.908 328.866 398.504
351.763 334.997 403.236
348.593 333.616 414.608
346.484 340.783 376.741
349.964 339.11 383.757
347.442 341.499 390.308
354.038 340.498 392.914
347.739 339.69 397.613
352.427 343.011 402.849
346.693 338.749 407.898
350.556 345.359 411.343
352.536 340.414 417.604
348.191 348.767 380.433
347.651 349.618 391.453
349.72 350.683 400.696
354.499 355.054 397.447
346.729 347.147 396.45
347.9 353.435 408.026
354.815 350.508 406.932
349.588 352.828 415.17
346.385 346.47 418.221
351.422 348.3 424.991
348.937 360.494 384.475
346.968 363.338 390.992
354.679 359.631 390.761
347.535 356.889 395.045
351.631 364.312 396.989
348.434 359.244 402.597
347.494 360.59 411.667
354.358 361.988 408.295
354.386 357.968 419.288
359.049 325.118 392.517
356.447 332.695 389.472
358.629 332.582 413.667
358.449 328.479 405.981
357.662 337.993 381.993
355.814 340.847 388.745
364.188 336.832 390.208
361.475 343.895 393.044
356.28 337.428 397.099
362.141 341.333 400.587
358.665 336.288 405.542
357.431 340.57 411.523
359.342 345.241 406.267
362.004 339.107 417.903
358.177 343.691 423.761
360.752 346.039 384.777
355.672 348.472 390.776
359.658 354.628 387.509
357.712 348.318 399.039
364.51 352.721 399.544
357.746 355.11 412.212
363.941 350.99 407.281
363.38 345.804 413.199
356.046 348.526 417.333
364.033 348.5 420.1
363.579 362.253 387.397
361.737 358.542 394.551
356.933 360.316 401.754
363.35 364.961 399.769
362.968 358.704 406.089
360.266 362.55 414.257
355.997 368.001 402.816
365.89 332.977 404.133
367.482 340.916 383.079
368.577 345.535 397.343
372.785 343.677 409.248
368.001 347.229 388.836
373.946 349.457 402.716
365.705 355.219 413.438

POINT_DATA 110
SCALARS radius double
LOOKUP_TABLE default
4.47271
4.57271
5.0053
5.04636
5.09809
5.08931
4.04636
4.14636
5.03728
5.08931
5.03728
5.08931
4.7053
5.04636
5.09809
4.7053
4.17271
5.07271
5.07271
5.0053
5.07271
4.07271
5.04636
5.02621
5.02621
5.02621
5.07271
5.04636
5.08666
5.08931
5.0053
4.14636
5.07271
5.02621
5.02621
5.0053
5.09809
5.03728
5.02621
5.02621
5.04636
4.92621
5.02621
5.07271
5.08931
5.08931
3.98931
5.04636
5.09809
5.02621
5.0053
5.02621
5.07271
5.09809
5.07271
5.02621
4.14636
5.07271
5.03939
5.02621
5.02621
5.02621
4.9053
4.8053
5.0053
5.0053
5.0053
5.02621
5.02621
5.02621
5.09809
5.0053
5.0053
5.07271
5.07271
5.02621
4.08931
5.07271
5.02621
5.07271
5.0053
4.92621
5.07271
5.03939
5.07271
5.08931
5.07271
5.02621
5.0053
5.02621
5.02621
5.02621
5.08931
4.81614
5.06002
4.81614
5.07271
5.02621
5.02621
5.08931
5.07271
5.09809
5.08931
5.07271
5.07271
5.02621
5.07271
5.02621
5.07271
5.04636

SCALARS status double
LOOKUP_TABLE default
1
1
1
1
1
1
1
1
1
1
1
1
1
1
1
1
1
1
1
1
1
1
1
1
1
1
1
1
1
1
1
1
1
1
1
1
1
1
1
1
1
1
2
1
1
1
1
1
1
2
1
1
1
1
1
1
1
1
1
1
1
1
1
1
1
1
1
1
1
1
1
1
1
1
1
1
1
1
1
1
1
1
1
1
1
1
1
1
1
1
1
1
1
1
1
1
1
1
1
1
1
1
1
1
1
1
1
1
1
1

SCALARS concentration double
LOOKUP_TABLE default
25.1202
25.1202
26.4555
26.2885
25.9947
28.9535
27.2227
27.2227
28.771
28.322
29.3534
28.9535
29.0321
29.0321
30.724
29.0321
27.0275
25.9312
26.8275
27.7743
29.2952
27.0275
29.195
27.9563
29.1075
29.1075
29.6336
29.014
30.522
28.322
31.8922
31.5643
29.8503
31.2605
29.5831
34.6594
30.724
32.2282
27.7145
27.7145
27.191
29.6577
28.663
29.2848
30.2348
30.2348
31.1037
29.0173
31.6649
28.663
33.0238
30.8661
29.2952
31.5643
32.708
37.0598
31.5643
32.708
35.5302
31.2605
31.8178
31.8178
35.0282
35.0282
36.5676
34.0581
37.3014
36.1232
36.1232
36.1232
34.9696
28.9485
28.9485
28.7539
29.6577
30.2358
31.1037
31.8658
31.1037
31.1037
33.93
29.6577
32.5753
35.5302
31.8049
33.5426
34.7832
33.9601
36.5676
33.9601
36.0077
36.1232
35.5302
35.4265
34.2455
35.4265
42.5854
40.4896
37.0598
40.4896
37.3876
39.5134
40.4896
30.1937
31.8658
35.0796
36.5528
35.0796
37.0127
38.7581

SCALARS fibres double
LOOKUP_TABLE default
0
0
0
0
0
0
0
0
0
0
0
0
0
0
0
0
0
0
0
0
0
0
0
0
0
0
0
0
0
0
0
0
0
0
0
0
0
0
0
0
0
0
0
0
0
0
0
0
0
0
0
0
0
0
0
0
0
0
0
0
0
0
0
0
0
0
0
0
0
0
0
0
0
0
0
0
0
0
0
0
0
0
0
0
0
0
0
0
0
0
0
0
0
0
0
0
0
0
0
0
0
0
0
0
0
0
0
0
0
0

SCALARS phenot double
LOOKUP_TABLE default
7
7
7
7
7
7
7
7
7
7
7
7
7
7
7
7
7
7
7
7
7
7
7
7
7
7
7
7
7
7
7
7
7
7
7
7
7
7
7
7
7
7
7
7
7
7
7
7
7
7
7
7
7
7
7
7
7
7
7
7
7
7
7
7
7
7
7
7
7
7
7
7
7
7
7
7
7
7
7
7
7
7
7
7
7
7
7
7
7
7
7
7
7
7
7
7
7
7
7
7
7
7
7
7
7
7
7
7
7
7

SCALARS cont_pheno double
LOOKUP_TABLE default
0.5
0.5
0.5
0.5
0.5
0.5
0.5
0.5
0.5
0.5
0.5
0.5
0.5
0.5
0.5
0.5
0.5
0.5
0.5
0.5
0.5
0.5
0.5
0.5
0.5
0.5
0.5
0.5
0.5
0.5
0.5
0.5
0.5
0.5
0.5
0.5
0.5
0.5
0.5
0.5
0.5
0.5
0.45
0.5
0.5
0.5
0.5
0.5
0.5
0.45
0.5
0.5
0.5
0.5
0.5
0.5
0.5
0.5
0.5
0.5
0.5
0.5
0.5
0.5
0.5
0.5
0.5
0.5
0.5
0.5
0.5
0.55
0.55
0.5
0.5
0.5
0.5
0.5
0.5
0.5
0.5
0.5
0.5
0.5
0.5
0.5
0.5
0.5
0.5
0.5
0.5
0.5
0.5
0.5
0.5
0.5
0.5
0.5
0.5
0.5
0.5
0.5
0.5
0.5
0.5
0.5
0.5
0.5
0.5
0.5

SCALARS name double
LOOKUP_TABLE default
69
105
35
49
16
32
8
107
4
91
9
95
83
17
11
104
52
28
46
22
27
106
13
34
58
89
26
14
1
66
67
5
19
56
60
38
86
54
87
59
23
0
82
47
96
40
109
3
10
36
31
21
81
90
2
100
108
93
77
79
85
30
102
41
25
7
63
92
20
84
6
75
37
45
94
70
78
44
72
12
48
101
15
99
61
42
64
39
98
73
68
74
18
57
62
103
51
76
33
97
71
50
65
53
80
88
55
29
43
24

SCALARS interaction_phenotype double
LOOKUP_TABLE default
0
0
0
0
0
0
0
0
0
0
0
0
0
0
0
0
0
0
0
0
0
0
0
0
0
0
0
0
0
0
0
0
0
0
0
0
0
0
0
0
0
0
0
0
0
0
0
0
0
0
0
0
0
0
0
0
0
0
0
0
0
0
0
0
0
0
0
0
0
0
0
0
0
0
0
0
0
0
0
0
0
0
0
0
0
0
0
0
0
0
0
0
0
0
0
0
0
0
0
0
0
0
0
0
0
0
0
0
0
0

SCALARS vessel_interaction double
LOOKUP_TABLE default
0
0
0
0
0
0
0
0
0
0
0
0
0
0
0
0
0
0
0
0
0
0
0
0
0
0
0
0
0
0
0
0
0
0
0
0
0
0
0
0
0
0
0
0
0
0
0
0
0
0
0
0
0
0
0
0
0
0
0
0
0
0
0
0
0
0
0
0
0
0
0
0
0
0
0
0
0
0
0
0
0
0
0
0
0
0
0
0
0
0
0
0
0
0
0
0
0
0
0
0
0
0
0
0
0
0
0
0
0
0

SCALARS is_follower double
LOOKUP_TABLE default
1
1
1
1
1
1
1
1
1
1
1
1
1
1
1
1
1
1
1
1
1
1
1
1
1
1
1
1
1
1
1
1
1
1
1
1
1
1
1
1
1
1
1
1
1
1
1
1
1
1
1
1
1
1
1
1
1
1
1
1
1
1
1
1
1
1
1
1
1
1
1
1
1
1
1
1
1
1
1
1
1
1
1
1
1
1
1
1
1
1
1
1
1
1
1
1
1
1
1
1
1
1
1
1
1
1
1
1
1
1

SCALARS polarised double
LOOKUP_TABLE default
0
0
0
0
0
0
0
0
0
0
0
0
0
0
0
0
0
0
0
0
0
0
0
0
0
0
0
0
0
0
0
0
0
0
0
0
0
0
0
0
0
0
0
0
0
0
0
0
0
0
0
0
0
0
0
0
0
0
0
0
0
0
0
0
0
0
0
0
0
0
0
0
0
0
0
0
0
0
0
0
0
0
0
0
0
0
0
0
0
0
0
0
0
0
0
0
0
0
0
0
0
0
0
0
0
0
0
0
0
0

