# vtk DataFile Version 2.0
Unstructured grid legacy vtk file with point scalar data
ASCII

DATASET UNSTRUCTURED_GRID
POINTS 101 double
319.915 354.703 386.221
325.034 358.251 391.777
322.326 358.268 400.07
335.032 339.639 392.551
331.874 355.096 382.543
331.959 348 390.139
331.323 354.974 395.502
334.329 353.267 409.359
335.296 358.532 376.314
328.91 364.088 387.444
335.534 358.942 389.125
330.415 364.213 395.896
334.511 363.811 403.75
341.199 333.673 395.655
341.734 333.996 403.917
336.581 345.296 371.934
342.036 344.357 383.805
342.487 336.694 387.935
341.042 344.75 391.696
339.975 341.097 399.49
341.464 342.917 412.086
343.726 338.892 419.107
339.928 351.275 377.182
338.389 351.353 385.796
341.456 353.467 392.548
336.854 347.06 404.449
341.628 354.169 404.27
336.231 348.439 396.99
344.141 348.132 398.433
344.748 346.027 405.756
341.766 351.971 412.485
342.907 364.809 400.268
338.089 358.349 398.362
339.062 360.203 409.938
349.503 332.319 384.76
349.373 333.492 393.241
354.825 329.408 398.953
348.735 334.029 414.478
347.634 340.251 378.736
350.135 339.785 385.026
347.472 341.839 389.769
354.242 335.958 404.301
347.392 340.383 396.575
352.267 343.733 402.368
347.382 338.636 407.869
350.518 345.157 411.073
352.867 340.443 417.97
347.734 349.557 380.498
348.429 348.303 391.795
350.421 350.885 401.482
353.541 354.966 399.258
349.926 352.786 414.44
348.766 353.078 407.722
355.531 349.267 407.505
351.273 348.164 424.652
346.725 346.6 417.709
347.967 362.499 389.328
354.415 358.947 391.745
348.592 356.06 395.27
352.069 363.539 396.756
348.496 359.435 402.619
346.888 360.284 410.853
354.58 362.027 407.954
354.328 357.685 418.96
359.178 324.981 392.836
356.62 332.758 389.666
358.77 332.269 413.7
358.42 330.016 406.215
356.523 338.651 382.224
355.69 341.093 390.003
363.7 337.011 390.289
361.203 344.198 393.586
356.333 337.513 397.032
361.02 342.857 401.713
357.813 340.603 410.041
361.749 338.931 417.256
358.666 343.401 423.328
360.581 345.803 385.222
355.754 349.411 390.201
358.682 355.075 390.056
357.175 349.226 398.212
364.283 353.046 399.389
357.637 354.964 411.148
363.829 350.202 407.073
363.502 346.598 414.384
365.43 355.379 413.461
357.969 346.103 405.582
355.886 348.522 417.275
363.141 361.963 387.741
362.176 358.938 394.79
356.451 358.615 400.528
361.22 363.562 399.371
362.069 358.947 405.691
360.073 362.287 414.702
356.715 367.42 402.814
365.696 332.937 403.913
366.924 341.334 383.156
367.833 345.341 397.836
372.873 344.207 409.267
367.979 346.391 389.425
373.792 348.942 402.243

POINT_DATA 101
SCALARS radius double
LOOKUP_TABLE default
5.0053
5.0053
5.04636
5.09809
4.88931
5.09809
5.03728
5.03728
4.98931
5.04636
5.02621
5.04636
5.09809
5.07271
5.07271
5.0053
5.07271
5.0053
5.04636
5.02621
5.02621
5.02621
5.07271
5.04636
5.08666
5.08931
5.0053
5.08931
5.09809
5.07271
5.02621
5.0053
5.09809
5.03728
5.02621
5.02621
5.04636
5.02621
5.07271
4.68931
4.68931
5.07271
5.04636
5.09809
5.02621
5.0053
5.02621
5.07271
5.09809
5.07271
4.12621
5.02621
5.07271
4.13939
5.02621
5.02621
5.04636
4.3053
5.0053
5.0053
5.02621
5.02621
5.02621
5.09809
5.0053
5.0053
5.07271
5.07271
5.02621
5.02621
5.07271
5.02621
5.07271
5.0053
5.07271
5.07271
5.08931
5.07271
5.02621
4.3053
5.02621
5.02621
5.02621
5.08931
5.06002
5.04636
4.23939
5.06002
5.07271
5.02621
4.22621
4.58931
5.07271
5.09809
4.68931
5.07271
5.07271
5.02621
5.07271
5.02621
5.07271

SCALARS status double
LOOKUP_TABLE default
1
1
1
1
1
1
1
1
1
1
1
1
1
1
1
1
1
1
1
1
1
1
1
1
1
1
1
1
1
1
1
1
1
1
1
1
1
2
1
1
1
1
1
1
2
1
1
1
1
1
1
1
1
1
1
1
1
1
1
1
1
1
1
1
1
1
1
1
1
1
1
1
1
1
1
1
1
1
1
1
1
1
1
1
1
1
1
1
1
1
1
1
1
1
1
1
1
1
1
1
1

SCALARS concentration double
LOOKUP_TABLE default
25.1202
26.4555
26.2885
25.9947
28.9535
27.2227
28.771
29.3534
28.9535
29.0321
29.5831
29.0321
30.724
25.9312
26.8275
27.7743
29.2952
27.0275
29.195
27.9563
29.1075
29.1075
29.6336
29.014
30.522
28.322
31.8922
28.322
31.5643
29.8503
31.2605
34.6594
30.724
32.2282
27.7145
27.7145
27.191
28.663
29.2848
30.2348
30.2348
29.6577
29.0173
31.6649
28.663
33.0238
30.8661
29.2952
31.5643
32.708
37.0598
31.2605
32.708
35.5302
31.8178
31.8178
35.0282
36.5676
34.0581
37.3014
36.1232
36.1232
36.1232
34.9696
28.9485
28.9485
28.7539
29.6577
30.2358
31.1037
31.8658
31.1037
31.1037
33.93
32.5753
31.8049
33.5426
34.7832
33.9601
36.5676
33.9601
36.0077
36.1232
35.5302
35.4265
38.7581
35.5302
34.2455
42.5854
40.4896
37.0598
40.4896
37.3876
39.5134
40.4896
30.1937
31.8658
35.0796
36.5528
35.0796
37.0127

SCALARS fibres double
LOOKUP_TABLE default
0
0
0
0
0
0
0
0
0
0
0
0
0
0
0
0
0
0
0
0
0
0
0
0
0
0
0
0
0
0
0
0
0
0
0
0
0
0
0
0
0
0
0
0
0
0
0
0
0
0
0
0
0
0
0
0
0
0
0
0
0
0
0
0
0
0
0
0
0
0
0
0
0
0
0
0
0
0
0
0
0
0
0
0
0
0
0
0
0
0
0
0
0
0
0
0
0
0
0
0
0

SCALARS phenot double
LOOKUP_TABLE default
7
7
7
7
7
7
7
7
7
7
7
7
7
7
7
7
7
7
7
7
7
7
7
7
7
7
7
7
7
7
7
7
7
7
7
7
7
7
7
7
7
7
7
7
7
7
7
7
7
7
7
7
7
7
7
7
7
7
7
7
7
7
7
7
7
7
7
7
7
7
7
7
7
7
7
7
7
7
7
7
7
7
7
7
7
7
7
7
7
7
7
7
7
7
7
7
7
7
7
7
7

SCALARS cont_pheno double
LOOKUP_TABLE default
0.5
0.5
0.5
0.5
0.5
0.5
0.5
0.5
0.5
0.5
0.5
0.5
0.5
0.5
0.5
0.5
0.5
0.5
0.5
0.5
0.5
0.5
0.5
0.5
0.5
0.5
0.5
0.5
0.5
0.5
0.5
0.5
0.5
0.5
0.5
0.5
0.5
0.45
0.5
0.5
0.5
0.5
0.5
0.5
0.45
0.5
0.5
0.5
0.5
0.5
0.5
0.5
0.5
0.5
0.5
0.5
0.5
0.5
0.5
0.5
0.5
0.5
0.5
0.5
0.55
0.55
0.5
0.5
0.5
0.5
0.5
0.5
0.5
0.5
0.5
0.5
0.5
0.5
0.5
0.5
0.5
0.5
0.5
0.5
0.5
0.5
0.5
0.5
0.5
0.5
0.5
0.5
0.5
0.5
0.5
0.5
0.5
0.5
0.5
0.5
0.5

SCALARS name double
LOOKUP_TABLE default
69
35
49
16
32
8
4
9
95
83
60
17
11
28
46
22
27
52
13
34
58
89
26
14
1
66
67
91
5
19
56
38
86
54
87
59
23
82
47
96
40
0
3
10
36
31
21
81
90
2
100
79
93
77
30
85
41
25
7
63
92
20
84
6
75
37
45
94
70
78
44
72
12
48
15
61
42
64
39
98
73
68
74
18
57
24
99
62
51
76
33
97
71
50
65
53
80
88
55
29
43

SCALARS interaction_phenotype double
LOOKUP_TABLE default
0
0
0
0
0
0
0
0
0
0
0
0
0
0
0
0
0
0
0
0
0
0
0
0
0
0
0
0
0
0
0
0
0
0
0
0
0
0
0
0
0
0
0
0
0
0
0
0
0
0
0
0
0
0
0
0
0
0
0
0
0
0
0
0
0
0
0
0
0
0
0
0
0
0
0
0
0
0
0
0
0
0
0
0
0
0
0
0
0
0
0
0
0
0
0
0
0
0
0
0
0

SCALARS vessel_interaction double
LOOKUP_TABLE default
0
0
0
0
0
0
0
0
0
0
0
0
0
0
0
0
0
0
0
0
0
0
0
0
0
0
0
0
0
0
0
0
0
0
0
0
0
0
0
0
0
0
0
0
0
0
0
0
0
0
0
0
0
0
0
0
0
0
0
0
0
0
0
0
0
0
0
0
0
0
0
0
0
0
0
0
0
0
0
0
0
0
0
0
0
0
0
0
0
0
0
0
0
0
0
0
0
0
0
0
0

SCALARS is_follower double
LOOKUP_TABLE default
1
1
1
1
1
1
1
1
1
1
1
1
1
1
1
1
1
1
1
1
1
1
1
1
1
1
1
1
1
1
1
1
1
1
1
1
1
1
1
1
1
1
1
1
1
1
1
1
1
1
1
1
1
1
1
1
1
1
1
1
1
1
1
1
1
1
1
1
1
1
1
1
1
1
1
1
1
1
1
1
1
1
1
1
1
1
1
1
1
1
1
1
1
1
1
1
1
1
1
1
1

SCALARS polarised double
LOOKUP_TABLE default
0
0
0
0
0
0
0
0
0
0
0
0
0
0
0
0
0
0
0
0
0
0
0
0
0
0
0
0
0
0
0
0
0
0
0
0
0
0
0
0
0
0
0
0
0
0
0
0
0
0
0
0
0
0
0
0
0
0
0
0
0
0
0
0
0
0
0
0
0
0
0
0
0
0
0
0
0
0
0
0
0
0
0
0
0
0
0
0
0
0
0
0
0
0
0
0
0
0
0
0
0

