# vtk DataFile Version 2.0
Unstructured grid legacy vtk file with point scalar data
ASCII

DATASET UNSTRUCTURED_GRID
POINTS 9 double
338.936 349.92 391.278
339.65 347.803 399.695
338.427 355.782 397.095
346.585 345.131 403.978
355.356 339.69 401.047
352.099 346.932 398.395
348.943 353.299 403.574
351.667 354.902 395.998
351.287 355.413 411.712

POINT_DATA 9
SCALARS radius double
LOOKUP_TABLE default
5.08666
5.08666
5.02287
5.08666
5.08666
5.03728
5.03728
5.03728
5.03728

SCALARS status double
LOOKUP_TABLE default
1
1
1
1
1
1
1
1
1

SCALARS concentration double
LOOKUP_TABLE default
28.9172
28.9172
30.8212
29.8337
31.0667
32.697
33.1504
32.697
35.1158

SCALARS fibres double
LOOKUP_TABLE default
0
0
0
0
0
0
0
0
0

SCALARS phenot double
LOOKUP_TABLE default
7
7
7
7
7
7
7
7
7

SCALARS cont_pheno double
LOOKUP_TABLE default
0.5
0.5
0.5
0.5
0.5
0.5
0.5
0.5
0.5

SCALARS name double
LOOKUP_TABLE default
8
1
4
3
0
5
2
7
6

SCALARS interaction_phenotype double
LOOKUP_TABLE default
0
0
0
0
0
0
0
0
0

SCALARS vessel_interaction double
LOOKUP_TABLE default
0
0
0
0
0
0
0
0
0

SCALARS is_follower double
LOOKUP_TABLE default
1
1
1
1
1
1
1
1
1

SCALARS polarised double
LOOKUP_TABLE default
0
0
0
0
0
0
0
0
0

