# vtk DataFile Version 2.0
Unstructured grid legacy vtk file with point scalar data
ASCII

DATASET UNSTRUCTURED_GRID
POINTS 7 double
344.695 345.743 403.837
340.802 347.267 396.44
340.085 355.676 398.034
354.762 341.102 401.012
351.844 348.52 397.673
348.876 353.406 403.771
351.666 355.626 411.284

POINT_DATA 7
SCALARS radius double
LOOKUP_TABLE default
5.08666
5.02287
5.02287
5.08666
5.08666
5.03728
5.03728

SCALARS status double
LOOKUP_TABLE default
1
1
1
1
1
1
1

SCALARS concentration double
LOOKUP_TABLE default
29.8337
28.9172
30.8212
31.0667
32.697
33.1504
35.1158

SCALARS fibres double
LOOKUP_TABLE default
0
0
0
0
0
0
0

SCALARS phenot double
LOOKUP_TABLE default
7
7
7
7
7
7
7

SCALARS cont_pheno double
LOOKUP_TABLE default
0.5
0.5
0.5
0.5
0.5
0.5
0.5

SCALARS name double
LOOKUP_TABLE default
3
1
4
0
5
2
6

SCALARS interaction_phenotype double
LOOKUP_TABLE default
0
0
0
0
0
0
0

SCALARS vessel_interaction double
LOOKUP_TABLE default
0
0
0
0
0
0
0

SCALARS is_follower double
LOOKUP_TABLE default
1
1
1
1
1
1
1

SCALARS polarised double
LOOKUP_TABLE default
0
0
0
0
0
0
0

