# vtk DataFile Version 2.0
Unstructured grid legacy vtk file with point scalar data
ASCII

DATASET UNSTRUCTURED_GRID
POINTS 11 double
339.131 350.14 390.502
339.565 347.331 399.053
337.493 355.401 397.162
341.76 349.263 407.216
346.389 343.675 403.102
355.322 336.073 400.535
354.199 343.13 403.253
352.873 347.772 397.456
349.641 351.837 404.199
350.502 355.621 396.315
351.948 355.854 411.189

POINT_DATA 11
SCALARS radius double
LOOKUP_TABLE default
5.08666
5.08666
5.02287
5.03728
5.03728
4.83728
4.93728
5.03728
5.03728
5.03728
5.03728

SCALARS status double
LOOKUP_TABLE default
1
1
1
1
1
1
1
1
1
1
1

SCALARS concentration double
LOOKUP_TABLE default
28.9524
28.946
29.7958
29.9528
30.1282
30.3382
30.3382
32.4076
33.2695
34.6548
35.0423

SCALARS fibres double
LOOKUP_TABLE default
0
0
0
0
0
0
0
0
0
0
0

SCALARS phenot double
LOOKUP_TABLE default
7
7
7
7
7
7
7
7
7
7
7

SCALARS cont_pheno double
LOOKUP_TABLE default
0.5
0.5
0.5
0.5
0.5
0.5
0.5
0.5
0.5
0.5
0.5

SCALARS name double
LOOKUP_TABLE default
8
1
4
9
3
0
10
5
2
7
6

SCALARS interaction_phenotype double
LOOKUP_TABLE default
0
0
0
0
0
0
0
0
0
0
0

SCALARS vessel_interaction double
LOOKUP_TABLE default
0
0
0
0
0
0
0
0
0
0
0

SCALARS is_follower double
LOOKUP_TABLE default
1
1
1
1
1
1
1
1
1
1
1

SCALARS polarised double
LOOKUP_TABLE default
0
0
0
0
0
0
0
0
0
0
0

