# vtk DataFile Version 2.0
Unstructured grid legacy vtk file with point scalar data
ASCII

DATASET UNSTRUCTURED_GRID
POINTS 9 double
339 350.142 391.167
339.9 347.87 399.789
338.242 355.908 397.359
346.38 345.099 404.194
355.199 339.32 401.431
352.087 346.805 398.151
348.862 353.153 403.603
351.672 354.864 395.834
351.28 355.7 411.864

POINT_DATA 9
SCALARS radius double
LOOKUP_TABLE default
5.08666
5.08666
5.02287
5.08666
5.08666
5.03728
5.03728
5.03728
5.03728

SCALARS status double
LOOKUP_TABLE default
1
1
1
1
1
1
1
1
1

SCALARS concentration double
LOOKUP_TABLE default
28.9172
28.9172
30.8212
29.8337
31.0667
32.697
33.1504
32.697
35.1158

SCALARS fibres double
LOOKUP_TABLE default
0
0
0
0
0
0
0
0
0

SCALARS phenot double
LOOKUP_TABLE default
7
7
7
7
7
7
7
7
7

SCALARS cont_pheno double
LOOKUP_TABLE default
0.5
0.5
0.5
0.5
0.5
0.5
0.5
0.5
0.5

SCALARS name double
LOOKUP_TABLE default
8
1
4
3
0
5
2
7
6

SCALARS interaction_phenotype double
LOOKUP_TABLE default
0
0
0
0
0
0
0
0
0

SCALARS vessel_interaction double
LOOKUP_TABLE default
0
0
0
0
0
0
0
0
0

SCALARS is_follower double
LOOKUP_TABLE default
1
1
1
1
1
1
1
1
1

SCALARS polarised double
LOOKUP_TABLE default
0
0
0
0
0
0
0
0
0

