# vtk DataFile Version 2.0
Unstructured grid legacy vtk file with point scalar data
ASCII

DATASET UNSTRUCTURED_GRID
POINTS 16 double
83.035 104.29 100.793
94.1119 100.388 94.4784
90.0809 104.035 100.346
89.1682 97.1985 109.995
97.2599 93.9668 97.5978
95.6392 99.0997 104.336
102.248 101.159 99.7424
99.1943 102.924 111.499
103.302 97.3872 107.085
104.681 97.3117 115.462
95.4676 107.093 89.2122
96.9871 107.123 101.401
99.8322 111.695 108.126
108.271 99.7777 93.7645
104.958 109.036 101.351
107.607 107.872 109.792

POINT_DATA 16
SCALARS radius double
LOOKUP_TABLE default
4.64636
5.09809
4.74636
5.03728
5.03728
5.03728
5.08666
5.09809
5.04636
5.04636
5.08666
5.09809
5.04636
5.02287
5.08666
5.04636

SCALARS status double
LOOKUP_TABLE default
1
1
1
1
1
1
1
1
1
1
1
1
1
1
1
1

SCALARS concentration double
LOOKUP_TABLE default
38.9575
38.9575
38.9575
38.9575
38.9575
38.9575
38.9575
38.9575
38.9575
38.9575
38.9575
38.9575
38.9575
38.9575
38.9575
38.9575

SCALARS fibres double
LOOKUP_TABLE default
0
0
0
0
0
0
0
0
0
0
0
0
0
0
0
0

SCALARS phenot double
LOOKUP_TABLE default
7
7
7
7
7
7
7
7
7
7
7
7
7
7
7
7

SCALARS cont_pheno double
LOOKUP_TABLE default
0.5
0.5
0.5
0.5
0.5
0.5
0.5
0.5
0.5
0.5
0.5
0.5
0.5
0.5
0.5
0.5

SCALARS name double
LOOKUP_TABLE default
15
2
11
1
3
10
0
4
8
13
6
7
14
5
9
12

SCALARS interaction_phenotype double
LOOKUP_TABLE default
0
0
0
0
0
0
0
0
0
0
0
0
0
0
0
0

SCALARS vessel_interaction double
LOOKUP_TABLE default
0
0
0
0
0
0
0
0
0
0
0
0
0
0
0
0

SCALARS is_follower double
LOOKUP_TABLE default
1
1
1
1
1
1
1
1
1
1
1
1
1
1
1
1

SCALARS polarised double
LOOKUP_TABLE default
0
0
0
0
0
0
0
0
0
0
0
0
0
0
0
0

