# vtk DataFile Version 2.0
Unstructured grid legacy vtk file with point scalar data
ASCII

DATASET UNSTRUCTURED_GRID
POINTS 6 double
95.1988 103.34 98.129
91.2289 97.5234 107.107
96.1978 95.2164 100.338
102.513 100.759 102.419
98.2388 101.993 109.811
105.764 100.121 94.6723

POINT_DATA 6
SCALARS radius double
LOOKUP_TABLE default
5.02287
5.03728
5.08666
5.02287
5.03728
5.02287

SCALARS status double
LOOKUP_TABLE default
1
1
1
1
1
1

SCALARS concentration double
LOOKUP_TABLE default
38.9575
38.9575
38.9575
38.9575
38.9575
38.9575

SCALARS fibres double
LOOKUP_TABLE default
0
0
0
0
0
0

SCALARS phenot double
LOOKUP_TABLE default
7
7
7
7
7
7

SCALARS cont_pheno double
LOOKUP_TABLE default
0.5
0.5
0.5
0.5
0.5
0.5

SCALARS name double
LOOKUP_TABLE default
2
1
3
0
4
5

SCALARS interaction_phenotype double
LOOKUP_TABLE default
0
0
0
0
0
0

SCALARS vessel_interaction double
LOOKUP_TABLE default
0
0
0
0
0
0

SCALARS is_follower double
LOOKUP_TABLE default
1
1
1
1
1
1

SCALARS polarised double
LOOKUP_TABLE default
0
0
0
0
0
0

