# vtk DataFile Version 2.0
Unstructured grid legacy vtk file with point scalar data
ASCII

DATASET UNSTRUCTURED_GRID
POINTS 11 double
338.981 350.014 390.741
340.069 347.333 399.085
337.531 355.204 397.129
342.109 349.17 407.158
346.579 343.849 403.405
354.749 337.391 400.916
353.261 342.748 402.233
353.181 347.482 397.968
349.676 351.659 404.107
350.901 354.774 396.099
351.639 355.945 411.265

POINT_DATA 11
SCALARS radius double
LOOKUP_TABLE default
5.08666
5.08666
5.02287
5.03728
5.03728
4.23728
4.33728
5.03728
5.03728
5.03728
5.03728

SCALARS status double
LOOKUP_TABLE default
1
1
1
1
1
1
1
1
1
1
1

SCALARS concentration double
LOOKUP_TABLE default
28.9524
28.946
29.7958
29.9528
30.1282
30.3382
30.3382
32.4076
33.2695
34.6548
35.0423

SCALARS fibres double
LOOKUP_TABLE default
0
0
0
0
0
0
0
0
0
0
0

SCALARS phenot double
LOOKUP_TABLE default
7
7
7
7
7
7
7
7
7
7
7

SCALARS cont_pheno double
LOOKUP_TABLE default
0.5
0.5
0.5
0.5
0.5
0.5
0.5
0.5
0.5
0.5
0.5

SCALARS name double
LOOKUP_TABLE default
8
1
4
9
3
0
10
5
2
7
6

SCALARS interaction_phenotype double
LOOKUP_TABLE default
0
0
0
0
0
0
0
0
0
0
0

SCALARS vessel_interaction double
LOOKUP_TABLE default
0
0
0
0
0
0
0
0
0
0
0

SCALARS is_follower double
LOOKUP_TABLE default
1
1
1
1
1
1
1
1
1
1
1

SCALARS polarised double
LOOKUP_TABLE default
0
0
0
0
0
0
0
0
0
0
0

