# vtk DataFile Version 2.0
Unstructured grid legacy vtk file with point scalar data
ASCII

DATASET UNSTRUCTURED_GRID
POINTS 72 double
324.587 358.439 392.559
320.975 355.99 387.549
323.655 358.367 400.076
334.097 348.21 394.363
334.451 355.793 380.402
329.706 363.937 393.466
334.499 358.795 387.903
333.257 356.393 395.4
341.99 333.412 395.752
344.305 344.985 383.918
336.04 340.018 393.719
341.853 338.249 388.227
343.005 345.624 392.178
341.444 342.369 398.95
342.488 336.605 403.643
345.337 345.059 405.304
344.484 343.118 413.583
337.997 346.381 372.401
340.534 350.602 379.022
338.508 350.852 387.238
340.933 352.969 396.003
337.722 347.885 401.422
342.802 355.262 402.818
338.242 351.65 407.278
344.507 351.515 412.161
337.356 359.486 402.162
341.826 358.79 409.566
348.558 334.819 390.899
354.918 328.597 398.668
349.378 339.667 380.373
349.172 342.95 389.348
354.247 339.385 388.039
348.382 340.015 397.083
353.103 344.142 402.657
349.357 337.871 408.147
352.624 342.135 414.723
348.013 348.16 397.923
347.963 352.364 405.15
351.999 348.726 410.063
348.374 349.198 418.643
348.351 360.254 390.126
345.993 362.246 402.842
348.923 355.931 397.25
351.674 363.237 396.745
351.901 358.436 407.208
351.092 356.07 414.689
356.279 333.212 391.288
363.663 332.703 404.506
357.691 331.924 410.976
362.576 337.992 390.129
356.134 336.213 403.381
356.557 340.033 395.876
361.79 343.726 401.001
358.314 342.449 408.256
360.463 338.957 415.144
360.434 343.563 423.073
361.072 346.98 388.48
356.02 348.026 395.16
359.546 351.187 400.307
358.865 350.055 406.85
362.28 355.275 411.301
362.625 347.054 413.063
356.252 349.172 417.593
355.861 356.008 391.88
364.017 362.663 391.869
355.983 356.489 398.686
359.35 362.794 398.32
357.607 356.848 404.483
357.574 361.691 412.925
366.043 344.254 394.073
372.39 344.011 407.914
370.369 346.212 400.343

POINT_DATA 72
SCALARS radius double
LOOKUP_TABLE default
4.4053
4.5053
5.04636
5.09809
5.02621
5.09809
5.02621
5.03728
5.07271
5.0053
5.09809
5.0053
5.04636
5.02621
5.07271
5.07271
5.07271
5.0053
5.07271
5.04636
5.08666
5.02621
4.7053
5.03728
5.07271
5.03728
5.03728
5.07271
5.04636
5.07271
4.32621
4.42621
5.04636
5.09809
5.07271
5.02621
5.03728
4.8053
5.0053
5.07271
5.04636
5.0053
5.0053
5.0053
5.0053
5.09809
5.04636
5.07271
5.07271
5.0053
5.0053
5.0053
5.0053
5.07271
5.07271
5.08931
5.07271
5.07271
4.72621
4.72621
5.04636
5.06002
5.06002
5.04636
5.07271
4.17271
5.07271
4.27271
5.09809
5.07271
5.07271
5.07271

SCALARS status double
LOOKUP_TABLE default
1
1
1
1
1
1
1
1
1
1
1
1
1
1
1
1
1
1
1
1
1
1
1
1
1
1
1
1
1
1
1
1
1
1
2
1
1
1
1
1
1
1
1
1
1
1
1
1
1
1
1
1
1
1
1
1
1
1
1
1
1
1
1
1
1
1
1
1
1
1
1
1

SCALARS concentration double
LOOKUP_TABLE default
26.4555
25.1202
26.2885
27.2227
28.9535
29.0321
29.5831
28.771
25.9312
29.2952
25.9947
27.0275
29.195
27.9563
26.8275
29.8503
29.1075
27.7743
29.6336
29.014
30.522
28.322
31.8922
29.3534
31.2605
30.724
32.2282
27.7145
27.191
29.2848
30.2348
30.2358
29.0173
31.6649
28.663
30.8661
31.5643
32.708
33.0238
31.8178
35.0282
34.6594
34.0581
37.3014
36.1232
34.9696
28.9485
30.1937
28.7539
31.8658
29.6577
31.1037
33.93
32.5753
31.8049
33.5426
34.7832
33.9601
36.0077
35.5302
38.7581
35.4265
34.2455
36.5676
42.5854
37.0598
40.4896
37.3876
39.5134
35.0796
36.5528
37.0127

SCALARS fibres double
LOOKUP_TABLE default
0
0
0
0
0
0
0
0
0
0
0
0
0
0
0
0
0
0
0
0
0
0
0
0
0
0
0
0
0
0
0
0
0
0
0
0
0
0
0
0
0
0
0
0
0
0
0
0
0
0
0
0
0
0
0
0
0
0
0
0
0
0
0
0
0
0
0
0
0
0
0
0

SCALARS phenot double
LOOKUP_TABLE default
7
7
7
7
7
7
7
7
7
7
7
7
7
7
7
7
7
7
7
7
7
7
7
7
7
7
7
7
7
7
7
7
7
7
7
7
7
7
7
7
7
7
7
7
7
7
7
7
7
7
7
7
7
7
7
7
7
7
7
7
7
7
7
7
7
7
7
7
7
7
7
7

SCALARS cont_pheno double
LOOKUP_TABLE default
0.5
0.5
0.5
0.5
0.5
0.5
0.5
0.5
0.5
0.5
0.5
0.5
0.5
0.5
0.5
0.5
0.5
0.5
0.5
0.5
0.5
0.5
0.5
0.5
0.5
0.5
0.5
0.5
0.5
0.5
0.5
0.5
0.5
0.5
0.45
0.5
0.5
0.5
0.5
0.5
0.5
0.5
0.5
0.5
0.5
0.5
0.55
0.5
0.5
0.5
0.5
0.5
0.5
0.5
0.5
0.5
0.5
0.5
0.5
0.5
0.5
0.5
0.5
0.5
0.5
0.5
0.5
0.5
0.5
0.5
0.5
0.5

SCALARS name double
LOOKUP_TABLE default
35
69
49
8
32
17
60
4
28
27
16
52
13
34
46
19
58
22
26
14
1
66
67
9
56
11
54
59
23
47
40
70
3
10
36
21
5
2
31
30
41
38
7
63
20
6
37
53
45
44
0
12
48
15
61
42
64
39
68
18
24
57
62
25
51
33
65
71
50
29
55
43

SCALARS interaction_phenotype double
LOOKUP_TABLE default
0
0
0
0
0
0
0
0
0
0
0
0
0
0
0
0
0
0
0
0
0
0
0
0
0
0
0
0
0
0
0
0
0
0
0
0
0
0
0
0
0
0
0
0
0
0
0
0
0
0
0
0
0
0
0
0
0
0
0
0
0
0
0
0
0
0
0
0
0
0
0
0

SCALARS vessel_interaction double
LOOKUP_TABLE default
0
0
0
0
0
0
0
0
0
0
0
0
0
0
0
0
0
0
0
0
0
0
0
0
0
0
0
0
0
0
0
0
0
0
0
0
0
0
0
0
0
0
0
0
0
0
0
0
0
0
0
0
0
0
0
0
0
0
0
0
0
0
0
0
0
0
0
0
0
0
0
0

SCALARS is_follower double
LOOKUP_TABLE default
1
1
1
1
1
1
1
1
1
1
1
1
1
1
1
1
1
1
1
1
1
1
1
1
1
1
1
1
1
1
1
1
1
1
1
1
1
1
1
1
1
1
1
1
1
1
1
1
1
1
1
1
1
1
1
1
1
1
1
1
1
1
1
1
1
1
1
1
1
1
1
1

SCALARS polarised double
LOOKUP_TABLE default
0
0
0
0
0
0
0
0
0
0
0
0
0
0
0
0
0
0
0
0
0
0
0
0
0
0
0
0
0
0
0
0
0
0
0
0
0
0
0
0
0
0
0
0
0
0
0
0
0
0
0
0
0
0
0
0
0
0
0
0
0
0
0
0
0
0
0
0
0
0
0
0

