# vtk DataFile Version 2.0
Unstructured grid legacy vtk file with point scalar data
ASCII

DATASET UNSTRUCTURED_GRID
POINTS 511 double
56.9321 97.4108 111.237
55.3273 107.891 96.7756
62.2781 90.7881 103.676
64.2671 97.3353 92.3138
61.1059 99.5334 100.694
64.4135 96.3789 110.513
62.3342 104.51 107.919
61.0795 102.155 115.445
63.9605 104.382 122.068
62.338 107.846 92.2755
60.4924 113.843 99.3306
57.9751 112.217 106.926
66.3111 112.372 105.611
65.0102 110.073 114.008
64.3641 114.591 79.5974
63.9539 118.977 88.4411
62.6253 119.523 105.598
75.1962 87.5841 94.467
70.13 93.3141 96.4219
69.9981 86.8931 104.115
75.8719 95.0334 103.872
72.1405 91.8475 108.887
74.6516 88.8514 117.54
72.8816 94.173 124.878
72.4222 96.8417 88.5891
67.2295 102.741 86.4199
66.9578 102.925 95.8485
74.1558 101.558 104.461
68.3176 96.6599 103.578
75.3265 104.546 96.9275
74.3321 99.9718 111.653
70.213 96.8146 111.936
68.4418 97.1439 118.854
68.0256 103.122 114.511
76.1557 102.07 126.155
73.0463 112.958 78.3439
76.1345 111.483 85.7454
71.032 108.219 91.7486
67.0696 111.361 86.3238
67.6366 105.262 102.26
72.5267 111.294 100.302
70.7621 106.215 108.729
72.8291 112.661 111.122
68.9547 110.993 121.671
74.1358 106.485 116.633
76.092 114.323 117.825
68.5246 105.804 128.485
75.6651 114.089 125.244
74.605 109.605 130.306
69.7141 120.412 76.2458
71.6495 117.926 85.0971
66.8986 114.377 94.4595
75.6433 114.583 93.1482
70.6239 121.64 92.668
76.0153 121.84 103.704
76.2174 117.35 99.9879
70.9163 119.941 108.666
73.8906 122.57 116.938
68.0733 117.148 116.012
76.0419 125.84 124.672
79.8816 74.1718 107.388
82.9338 83.7344 84.7861
82.7957 84.7964 92.6373
79.7814 76.3526 99.4959
80.0682 84.1115 100.364
84.2592 80.9313 106.86
82.9908 94.8651 74.3752
78.1529 90.016 74.674
84.7877 87.8156 77.2261
77.4623 94.6639 80.7793
78.244 90.939 88.0762
85.4269 91.0485 87.9031
78.1168 90.7127 100.98
85.3935 89.3315 99.01
83.7372 88.8234 107.446
79.2812 95.2454 109.826
82.5785 91.0846 115.688
80.6687 89.8432 124.32
82.238 101.604 77.374
80.2108 99.0284 84.8575
85.5551 96.7701 81.1444
76.6087 104.011 88.1402
80.9237 97.7359 89.989
84.4599 102.889 93.0513
77.0796 95.5325 95.3033
84.0043 96.0637 95.745
84.8653 95.597 102.886
80.0602 99.6604 100.581
81.005 103.06 108.207
83.2015 101.773 115.221
83.4085 98.1363 123.092
76.6367 96.4859 117.714
78.9134 102.701 118.7
79.0294 95.8181 130.4
84.2686 102.169 130.137
85.6004 113.969 62.0915
85.6595 105.105 63.1716
80.3276 110.062 75.3398
81.804 107.134 82.6013
81.0326 108.48 92.7294
82.9696 105.73 100.049
81.5721 113.339 99.2068
78.5654 110.363 105.995
80.8356 109.296 113.733
80.1659 108.33 122.439
81.0382 109.662 133.535
78.4284 119.35 75.0284
82.9124 115.521 81.2796
79.8797 118.512 87.7871
84.4715 118.311 93.9053
78.0711 122.438 95.0578
82.4193 117.76 106.973
80.8142 119.111 122.405
83.4257 117.646 115.173
79.6542 118.043 130.186
85.5274 115.36 130.434
85.7417 129.896 70.5516
79.9954 124.575 82.2294
83.4841 125.603 89.9884
85.4866 125.643 98.3443
77.1941 128.615 99.72
80.3052 124.227 113.234
81.5245 125.866 105.709
84.4564 133.969 99.6212
91.8481 69.9597 99.7968
90.7473 75.6524 106.064
93.9138 79.5229 92.8053
89.8394 84.0373 101.307
89.7917 77.944 98.8719
90.9269 83.6256 110.853
89.332 77.7795 117.305
86.2851 84.6992 120.56
93.038 80.5028 124.162
90.6623 94.59 75.367
93.4103 86.7429 77.14
89.4493 90.4868 81.7186
93.3849 88.1413 86.5396
90.4216 87.3377 93.0016
91.0536 93.9874 97.5584
91.2731 91.2785 104.986
90.3316 91.3542 113.086
94.3057 86.9886 118.699
88.2113 92.2658 120.942
91.38 88.5091 127.154
86.9437 94.1225 132.773
92.2772 101.533 59.5399
92.6834 99.8774 70.1845
90.9872 102.351 78.253
85.851 102.641 87.3129
89.8852 96.0882 85.9406
93.5393 100.49 88.9427
88.5735 96.3664 91.915
88.6736 102.657 95.2869
88.1072 102.924 104.36
93.2971 98.7274 101.101
86.0311 97.3432 110.033
94.1825 98.3343 108.766
89.5407 99.0568 116.956
92.8076 103.691 122.466
90.9778 97.5058 126.489
94.2749 106.6 65.7492
87.1394 108.629 69.6143
93.9313 112.513 72.0239
88.7263 109.447 76.3885
92.309 106.945 84.8584
88.0306 109.778 81.6919
86.4466 112 87.9381
88.2353 110.714 95.5128
93.3134 105.409 98.2094
88.0672 110.566 104.034
95.0391 105.562 103.992
88.8353 105.18 112.032
88.0433 112.518 111.638
94.9331 106.227 108.881
93.598 110.339 117.606
86.1477 111.124 119.275
87.6245 108.881 127.4
89.8056 105.428 136.447
90.213 118.641 66.9422
86.4176 115.885 73.7579
85.9464 123.389 74.895
91.4439 115.589 80.2656
87.7523 122.492 82.1073
89.0012 119.015 88.1504
92.0252 117.295 94.2881
87.7746 118.214 100.803
92.2073 123.696 102.6
87.7611 123.428 110.052
91.8127 117.443 106.903
86.9011 123.382 120.416
90.2401 117.998 115.759
89.4344 115.942 123.546
94.2148 119.608 118.628
93.0017 115.327 130.714
91.4486 122.253 127.038
92.789 119.9 140.01
91.6804 125.395 70.084
87.0717 130.584 78.3579
94.608 126.26 77.4872
90.0428 128.639 85.6642
95.2201 133.389 80.5624
93.3064 124.989 92.8704
88.5413 131.653 92.7123
92.616 130.44 99.661
87.5776 131.337 106.468
94.4641 128.125 107.571
85.8638 129.804 114.928
91.8977 131.018 120.209
95.091 129.207 127.5
94.1286 124.561 134.178
92.0545 139.232 85.4225
90.7157 138.897 95.9054
99.4853 71.4634 85.1477
96.0075 71.571 93.1243
98.5363 73.5085 102.461
96.9512 72.2209 110.585
104.555 69.4323 106.31
97.5495 67.0271 117.308
102.514 73.4531 116.448
95.3192 80.7872 84.3247
102.5 79.0129 86.1501
102.698 77.685 94.2697
98.6326 85.3728 91.7575
97.908 81.1562 99.8187
98.05 80.3931 107.958
104.549 84.7171 112.302
100.757 77.285 123.512
97.4048 80.0319 116.309
99.1393 85.3964 125.763
102.192 87.5106 75.1528
104.739 93.4544 80.8384
99.549 86.9443 82.3407
96.2579 94.8304 82.4534
95.8442 93.5665 91.5923
102.193 90.8133 87.9386
95.6065 88.3155 98.8846
101.857 86.7293 104.359
102.578 91.6077 96.4804
99.0499 94.4745 103.639
97.4765 89.3326 110.644
104.628 93.325 110.79
101.646 89.5117 118.552
95.5543 94.0286 132.302
102.521 92.4881 128.519
98.789 97.5849 75.7888
98.266 102.804 82.0531
100.865 98.1826 87.7159
104.456 103.817 91.4953
99.7258 98.9621 96.3617
101.06 101.81 104.325
95.8288 95.57 120.003
96.6443 102.802 114.811
102.62 98.3812 116.575
98.9038 99.5192 126.707
98.7768 100.405 134.989
97.6233 101.379 142.888
100.732 111.52 65.1447
100.125 105.217 59.8062
104.237 112.844 57.7897
102.864 112.886 73.4623
97.6739 105.378 73.8222
97.5624 110.886 79.5569
102.267 108.488 85.0302
104.767 106.28 77.1985
95.3899 113.515 87.3159
97.3307 105.819 90.7359
103.204 112.087 91.6697
96.0983 111.75 95.3496
95.9919 112.146 103.099
100.818 106.754 98.0801
103.586 113.226 100.468
102.106 109.833 107.056
95.5386 112.758 111.178
101.655 109.535 114.907
100.858 105.203 121.427
104.661 113.313 121.992
95.683 109.956 124.935
101.163 113.289 129.74
95.6363 106.788 131.097
103.423 107.442 135.487
102.704 120.801 55.4798
103.764 119.621 63.473
95.7036 123.655 63.48
98.2263 118.104 68.8201
102.801 116.246 83.9092
97.832 118.679 76.9045
95.6289 121.591 84.7532
98.7239 118.664 91.4991
102.872 123.088 87.6086
103.696 119.204 96.9202
96.7497 118.397 99.4187
98.522 119.968 104.749
104.49 120.542 104.981
100.257 116.881 108.765
95.8975 121.459 111.576
97.2744 116.534 123.556
99.8493 117.12 116.348
103.891 120.814 120.636
99.5938 121.357 128.818
100.848 120.606 141.421
98.1088 115.763 136.078
100.767 125.155 71.3619
96.5298 130.725 67.6086
101.767 127.436 81.6327
101.76 126.485 93.627
96.9505 129.088 87.444
99.9087 125.994 100.824
103.071 132.906 98.1087
98.8691 133.378 104.601
102.031 126.519 108.767
97.7435 124.599 121.509
96.3919 128.057 115.09
104.005 127.782 116.588
102.284 128.151 132.301
102.681 134.725 85.8014
96.9889 134.12 93.4312
98.7129 139.903 99.4367
95.299 135.494 112.623
100.244 139.008 108.567
102.807 136.692 116.616
100.86 135.383 128.407
103.275 143.547 108.338
109.238 75.2163 88.3929
109.446 72.3902 96.6067
109.537 80.58 72.4583
108.667 79.3032 80.9788
106.84 83.9978 90.1964
112.597 80.1458 94.2698
105.952 77.5399 102.48
106.132 84.1563 98.0955
112.518 82.4311 102.521
105.025 76.3125 110.095
111.781 80.4642 109.508
111.475 82.4572 117.247
113.097 94.3261 72.1281
109.957 87.7696 83.1127
108.886 91.6794 90.3947
108.556 91.0105 100.369
113.251 88.6434 95.677
105.398 92.5731 104.948
111.356 88.6592 107.477
110.017 90.2303 115.991
113.396 92.0176 123.572
106.013 94.5784 122.13
107.446 86.7593 123.638
110.44 89.8752 130.916
111.207 100.515 66.5735
105.907 97.7633 73.1108
112.062 101.968 75.1368
113.135 95.6365 80.8515
105.928 100.598 81.2101
108.819 98.4545 87.6306
109.118 97.3294 95.3141
106.962 103.892 98.9147
107.049 97.5247 101.204
113.974 101.983 100.841
108.717 98.7226 106.319
104.829 102.923 110.858
113.636 103.179 108.922
110.388 98.1917 114.453
109.338 101.144 122.682
110.132 102.055 132.447
105.874 96.1564 134.374
106.218 101.68 140.589
105.122 105.625 69.2331
108.498 113.637 67.4018
109.014 113.12 79.4132
109.139 106.44 84.4357
113.993 106.455 79.498
110.356 113.866 87.944
111.504 105.194 92.8733
109.822 112.301 96.2023
109.362 108.524 104.075
109.417 109.59 111.724
107.829 106.238 118.217
111.878 111.706 119.75
106.436 107.257 127.139
113.539 109.093 130.525
111.731 107.788 138.476
106.062 113.884 140.229
108.91 121.982 69.9579
112.697 118.262 75.1151
105.516 121.791 77.5357
109.158 122.025 84.4316
113.628 120.247 80.554
108.285 119.737 92.0195
113.65 118.934 98.1531
108.371 122.075 99.5764
110.494 116.433 104.555
106.261 116.548 112.252
113.364 116.314 110.629
113.348 117.477 116.341
112.878 117.996 122.932
109.329 123.256 119.681
108.993 115.713 129.134
112.82 122.123 126.937
104.841 119.944 134.325
112.699 117.711 136.439
108.718 122.186 142.189
109.392 130.263 81.2107
109.134 128.308 89.6861
107.214 126.931 97.8004
107.44 131.746 103.013
113.864 125.712 96.362
108.98 123.973 111.874
110.899 124.928 105.14
106.468 132.835 111.736
114.024 130.439 111.009
106.443 131.861 107.79
106.325 131.823 123.055
107.122 124.43 126.94
110.17 126.223 135.218
104.823 138.449 93.0875
111.286 133.667 96.0312
110.52 138.661 103.382
122.631 84.0776 93.5474
117.943 83.1101 98.0931
121.301 94.2361 72.8798
115.737 91.8554 87.5802
123.826 94.6184 89.4658
122.062 92.2793 96.7209
119.227 87.9308 103.221
115.059 94.6568 100.938
120.068 88.2402 110.669
122.986 94.8107 105.088
118.205 91.9605 116.991
120.985 94.2515 125.78
120.625 103.187 74.3892
122.234 96.3938 80.2094
119.767 98.6979 86.1658
116.52 98.7143 93.4774
123.722 102.487 91.5388
114.508 102.489 85.8851
122.045 100.588 99.4749
115.776 95.3727 108.91
120.956 100.705 112.019
116.591 99.4417 119.598
117.08 101.994 129.868
121.135 101.372 125.231
114.49 107.637 69.6006
118.332 111.571 75.7907
122.619 105.092 82.9549
118.279 107.729 81.0024
116.454 108.995 87.5342
123.493 110.18 90.2281
117.717 106.923 93.9382
115.738 112.065 100.813
123.321 110.033 98.8323
117.761 105.838 99.14
116.832 110.991 108.821
120.705 106.09 105.514
123.579 108.231 113.67
115.143 106.468 123.406
116.004 106.216 115.84
120.098 112.955 119.622
122.725 104.941 120.361
121.52 110.364 127.44
118.401 112.089 134.983
122.456 107.683 140.609
116.028 112.678 143.415
115.999 116.737 69.2846
117.137 115.228 83.5198
123.612 117.602 85.6126
117.857 114.705 93.2085
115.542 121.643 89.5491
121.8 115.601 104.59
119.806 122.885 100.86
116.946 121.85 108.821
122.642 115.975 112.032
119.94 120.197 117.637
115.428 122.245 131.832
123.073 122.23 131.93
118.99 118.01 126.135
123.217 117.066 145.246
116.464 131.195 84.0469
122.398 124.373 92.7009
117.244 130.056 90.6293
117.7 129.071 95.1429
115.14 130.91 102.554
122.516 130.184 98.6715
120.625 128.415 107.322
114.441 129.941 123.241
114.958 125.555 116.574
121.747 124.98 123.384
122.225 127.953 115.405
116.132 139.483 101.556
127.549 88.0025 90.4855
130.01 97.753 79.3614
129.099 96.4744 99.6339
127.32 101.573 106.132
124.955 97.3092 119.117
129.126 110.787 72.2519
125.088 112.908 79.7305
129.457 105.971 79.2356
130.955 108.41 87.1884
129.52 111.699 95.0698
132.735 111.683 102.327
127.866 109.733 107.92
127.958 110.472 121.759
130.553 113.599 114.658
128.528 119.796 92.1746
128.958 114.856 87.8496
127.684 118.492 100.043
129.848 117.687 107.689
127.611 122.027 114.693
131.035 118.185 120.834
126.155 117.142 126.149
125.246 115.334 137.029
127.44 124.919 105.166
129.697 126.621 121.515
138.146 109.24 90.5934

POINT_DATA 511
SCALARS radius double
LOOKUP_TABLE default
5.00635
5.09976
5.09976
5.09976
5.09976
5.09976
5.04768
4.97354
5.04768
5.09976
5.03939
5.09976
5.09976
5.09976
5.04768
5.08931
5.03939
5.02621
5.09976
4.88931
4.58931
4.78931
5.02621
5.02621
5.07271
5.04768
5.04768
5.00635
5.09976
5.04768
4.18931
4.18931
5.09976
4.97354
5.09976
5.02621
5.04636
5.04768
5.04768
5.04768
5.04768
5.09976
5.04768
5.04768
5.03939
5.09976
5.04768
4.90635
5.00635
5.02621
5.08931
5.04768
5.02621
5.03939
4.52621
4.52621
5.08931
5.04768
5.04768
5.04768
5.02621
5.02621
5.02621
5.02621
5.0053
5.07271
4.48931
4.58931
5.02621
5.02621
5.02621
5.07271
4.58931
5.07271
5.08931
5.02621
5.08931
5.0053
5.02621
4.14768
4.68931
5.03939
4.24768
4.08931
5.09976
4.52621
5.02621
5.00635
5.09976
4.59976
5.08931
5.03939
4.59976
5.07271
5.09976
5.02621
5.02621
5.08931
5.0053
5.02621
5.07271
5.08931
5.08931
5.08931
5.03939
5.03939
5.08931
5.08654
5.03939
5.04768
5.02621
5.08931
5.09976
5.04768
4.49976
4.59976
4.78931
5.08931
5.02621
5.04768
5.07271
5.04768
5.0053
5.03939
5.04768
5.04768
5.09809
4.42621
4.52621
5.03939
5.03939
5.07271
5.03939
5.02621
5.0053
4.84684
4.74684
5.0053
4.82621
5.07271
5.07271
5.03939
5.08931
5.03939
5.07354
5.02621
5.07271
5.0053
5.0053
4.68931
5.0053
4.62621
4.18931
5.09976
4.92621
5.02621
5.09976
5.07271
5.08931
5.07354
5.07271
5.02621
5.08931
4.38931
5.03719
4.38931
5.08654
5.07271
5.07271
5.07271
4.23939
5.09976
5.02621
4.33939
5.02621
5.03939
5.07271
5.08931
5.02621
5.03939
5.09976
5.02272
5.09976
5.04768
5.02687
5.04768
5.04768
5.09976
5.09976
5.03939
4.39976
5.09976
4.39976
5.09976
5.09976
4.76043
4.68931
5.02621
5.04768
5.09976
5.07354
5.09976
5.03939
5.03939
5.09976
5.04768
5.03939
5.00635
5.03939
5.07354
5.07354
5.09976
5.00635
5.00635
5.04768
5.00635
5.04768
5.00635
5.03939
5.08931
5.04768
5.04768
5.02621
5.0053
5.07271
5.08931
5.09976
5.04768
5.0053
5.04636
5.09809
5.07271
5.07271
5.03939
5.08931
5.0053
5.09809
5.08931
5.07271
5.03939
5.02621
5.08931
5.04768
5.08931
5.02621
5.04636
5.03939
5.09809
5.08931
5.08931
5.03939
5.09976
5.02621
5.00635
5.03939
5.03939
5.03939
5.03939
5.03939
5.02621
5.02621
5.03719
5.08931
5.0053
5.07271
5.0053
5.08931
5.02687
5.02687
5.07271
5.07271
5.08931
5.09976
5.09976
5.08931
5.00635
5.07354
5.00635
5.07354
5.03939
5.03939
5.08931
5.02621
5.09802
5.09976
5.03719
5.02272
5.00635
5.07354
5.00635
5.02687
4.27354
5.00635
4.37354
5.09976
5.00635
5.09976
4.79976
5.04768
5.08983
4.86043
5.09802
5.02621
5.07354
5.04768
5.00635
5.09976
5.00635
5.00635
5.04768
5.03939
5.09976
5.09976
5.07354
5.08931
5.09976
5.08931
5.00635
4.13939
5.03939
5.04768
4.23939
5.03939
5.03939
5.09976
5.04768
5.09976
5.04768
5.09976
5.09976
5.04768
5.03939
5.09976
5.08931
5.04636
5.09809
5.08931
4.43939
5.04636
4.43939
5.02621
5.03939
5.03939
5.08931
5.07271
5.07271
5.07271
5.04636
5.02621
5.04636
5.0053
5.03939
5.02621
5.08931
4.33939
5.03939
4.43939
5.03939
5.02621
5.08931
5.03939
5.00635
5.07271
5.04768
5.02621
5.07271
5.09976
5.09976
4.24768
5.08931
5.03939
5.08931
5.08931
5.08931
5.03939
5.03939
5.03939
5.00635
5.00635
5.04768
5.03939
4.44768
5.04768
5.03939
4.44768
5.02621
5.03939
4.23939
5.03939
5.08931
4.78931
4.88931
5.03939
4.79976
5.03939
4.24768
5.00635
5.00635
5.02687
5.09976
5.08931
4.33939
5.08931
5.09976
5.02621
5.02621
4.13939
5.02621
4.13939
5.04768
5.02621
5.07354
5.03939
5.03939
4.23939
4.99976
4.99976
5.02621
5.04636
5.04636
5.03728
5.03939
5.02621
5.09976
5.03939
5.09976
5.07271
5.0053
5.08931
5.0053
5.04636
5.04636
5.0053
5.02621
5.02621
5.03939
5.03939
4.53939
4.63939
5.04636
5.08931
5.07271
4.24768
5.0053
5.08931
4.33939
5.08931
5.08931
4.33939
5.08931
5.00635
5.00635
5.03939
5.09976
5.09976
5.00635
5.08931
5.00635
5.07354
5.07354
5.09976
5.09976
4.38931
5.08931
5.08931
5.08931
5.03939
5.08931
5.08931
5.04768
4.34768
5.04768
5.04768
5.07354
5.03939
5.03939
4.14768
4.14768
5.02621
5.03939
5.08931
5.02621
5.07271
5.04768
5.02621
4.23939
5.04636
5.08931
5.04636
5.00635
5.03939
5.07271
5.02621
5.07271
5.08931
5.03939
5.09976
5.09976
5.09976
5.02621
5.08931
4.48931
5.03939
5.03939
5.09976
5.04768
4.94768
5.07354
5.08931
5.09976
5.02621

SCALARS status double
LOOKUP_TABLE default
1
1
1
1
1
1
1
1
1
1
1
1
1
1
1
1
1
1
1
1
1
1
1
1
1
1
1
1
1
1
1
1
1
1
1
1
1
1
1
1
1
1
1
1
1
1
1
1
1
1
1
1
1
1
1
1
1
1
1
1
1
1
1
1
1
1
1
1
1
1
1
1
1
2
1
1
1
1
1
1
1
1
1
1
1
1
1
1
1
1
1
1
1
1
1
1
1
1
1
1
1
1
1
1
1
1
1
1
1
1
1
1
1
1
1
1
1
1
1
1
1
1
1
1
1
1
1
1
1
1
1
1
1
1
1
1
1
1
1
2
2
1
1
1
1
1
1
1
1
1
1
1
1
1
1
1
1
2
1
1
1
1
1
1
1
1
1
1
1
1
1
1
1
1
1
1
1
1
1
1
1
1
1
1
1
1
1
1
1
1
1
1
1
1
1
1
1
1
1
1
1
1
1
1
1
1
1
1
1
1
1
1
1
1
1
1
1
1
1
1
1
1
1
1
1
1
1
1
1
1
1
1
1
1
1
1
1
1
1
1
1
1
1
1
1
1
1
1
1
1
1
1
1
1
1
1
1
1
1
1
1
1
1
1
1
1
1
1
1
1
1
1
1
1
1
1
1
1
1
1
1
1
1
1
1
1
1
1
1
1
1
1
1
1
1
1
1
1
1
1
1
1
1
1
1
1
1
1
1
1
1
1
1
1
1
1
1
1
1
1
1
1
1
1
1
1
1
1
1
1
1
1
1
1
1
1
1
1
2
1
1
1
1
1
1
1
1
1
1
1
1
1
1
2
1
1
1
1
1
1
1
1
1
1
1
1
1
1
1
1
1
1
1
1
1
1
1
1
1
1
1
1
1
1
1
1
1
1
1
1
1
1
1
1
1
1
1
1
1
1
1
1
1
1
1
1
1
1
1
1
1
1
1
1
1
1
1
1
2
1
1
1
1
1
1
1
1
1
1
1
1
1
1
1
1
1
1
1
1
1
1
1
1
1
1
1
1
1
1
1
1
1
1
1
1
1
1
1
1
1
1
1
1
1
1
1
1
1
1
1
1
1
1
1
1
1
1
1
1
1
1
1
1
1
1
1
1
1
1
1
1
1
1
1
1
1
1
1
1
1
1
1
1
1
1
1
1
1
1
1
1

SCALARS concentration double
LOOKUP_TABLE default
32.9087
32.8446
32.612
33.1036
32.612
33.3082
33.4291
32.9087
33.7799
33.7484
34.1697
33.6073
34.6969
34.2388
34.6675
34.9717
34.9691
33.6242
33.4226
33.4007
34.2988
33.4007
33.2933
33.7775
34.0619
33.9291
34.0179
34.5934
33.4226
35.2716
34.4396
34.4396
33.763
32.9087
35.0262
35.8849
36.1604
34.9775
34.6679
34.0179
35.5668
34.5579
35.6107
35.2434
35.1659
36.4633
34.4642
36.2372
36.2372
35.9913
36.087
35.1284
36.4676
36.5419
37.2323
37.2323
36.3462
37.4014
35.614
37.8086
32.6677
34.6133
33.8212
32.6677
33.5425
33.7131
35.283
35.283
34.6133
34.4307
34.6178
35.3925
34.2988
35.1583
34.4775
34.6823
34.8039
34.0945
36.2442
35.1523
36.2442
35.5935
35.1523
37.4365
35.1523
36.1152
35.5986
34.5934
36.0164
36.3177
35.3843
34.9349
36.3177
34.7987
36.6013
38.8967
37.5341
36.5934
36.6396
37.0272
36.6034
37.7837
36.5478
36.9426
36.5744
36.2315
37.825
38.1566
37.6362
39.0753
38.0067
38.2405
37.6042
38.6285
37.7576
37.7576
40.7995
38.7636
39.3271
39.5876
38.3639
38.3741
39.0765
40.8188
33.3008
33.3008
34.9807
34.599
34.599
34.7732
33.8597
34.4168
34.8215
36.7575
35.8026
35.9579
35.9579
35.2979
37.0313
35.8167
35.8043
35.5206
35.9351
35.9302
36.0156
38.1787
38.2274
37.7228
36.9163
36.2442
37.7354
36.1152
37.4365
37.2596
37.0313
35.9879
37.4623
36.8449
38.3058
37.0377
38.2274
38.3723
40.146
38.296
38.7324
38.296
38.2776
38.5959
38.9141
38.8131
39.299
37.6953
38.7014
39.299
39.3836
38.293
38.3769
37.9846
40.7102
39.5195
40.064
40.7879
40.064
39.7146
40.7547
39.913
41.7451
40.0398
40.4975
39.463
40.4884
40.3126
40.4884
40.2498
40.3126
42.9066
40.7995
40.8431
42.388
41.0277
43.2149
41.7236
41.8676
42.2485
41.4825
41.7451
40.3598
42.7765
41.7492
41.9392
43.2149
43.0479
34.6565
33.9599
34.4676
33.9491
34.2978
33.3165
35.4756
35.4429
36.1431
35.3363
36.6232
35.4338
35.376
36.9129
34.7904
34.7969
36.5977
37.1802
38.4181
35.9579
37.5345
37.1317
38.5531
36.2814
36.8827
38.2
37.6926
36.6662
38.4966
37.1987
36.8798
38.7293
38.5629
39.5722
39.2384
41.2847
39.0458
39.6444
37.4496
38.7963
38.9808
38.3341
38.7939
38.586
41.7328
40.3874
42.3643
42.7663
39.8285
40.2683
41.785
41.3081
40.2483
39.5569
42.0834
40.304
41.3101
41.1825
41.1825
41.747
40.4526
41.0457
40.1736
42.6491
39.2406
41.732
39.2406
41.1049
43.7593
44.0138
42.8052
43.283
43.1785
41.9193
41.9934
42.9642
44.829
43.6546
41.3101
42.5268
42.5268
42.5268
42.5817
40.9379
42.1787
44.5532
42.6419
42.9066
42.9066
43.283
42.8052
44.829
44.5983
43.4442
43.7681
45.2936
44.3314
44.4628
42.9592
42.5817
45.4984
44.965
46.2564
44.6944
45.3713
43.8495
46.3309
46.485
46.0199
46.3309
35.9034
35.3751
36.6524
36.1431
36.6598
37.6385
35.7926
37.0249
37.6385
35.4756
37.2074
37.4511
40.2111
38.1972
38.5531
38.4054
38.9593
38.4054
38.6659
38.6238
39.5658
38.7293
37.3734
38.9402
41.3116
39.6165
42.2169
40.4175
40.4175
41.1545
40.2893
41.501
40.0684
42.7144
40.0684
40.5431
42.5767
40.6155
40.9194
41.4476
38.9946
40.5187
41.3912
44.1035
43.8449
43.1233
43.1233
44.6221
43.4068
43.7353
42.8861
42.9376
42.6467
44.0846
41.7362
44.3641
43.1949
42.9435
45.9417
46.1478
44.9141
46.6379
46.1478
45.6609
46.7743
46.6873
45.0458
44.0036
45.8003
45.8003
46.4007
44.5532
44.3155
47.9434
44.216
46.1373
45.3668
48.0134
47.6318
46.6873
47.5796
49.3926
46.5256
47.0942
47.5796
49.9724
47.5796
47.1246
46.4635
47.1435
47.9628
49.0239
50.3133
38.9298
38.9298
41.8441
40.0674
42.0291
41.4547
39.7846
40.7591
39.7877
42.2061
40.444
41.353
44.4867
43.3021
42.6486
42.1713
44.719
42.6486
43.9551
41.1093
43.3936
42.044
42.7744
42.7744
44.355
46.7408
45.217
43.1233
45.1886
47.8878
45.7158
44.8947
45.7158
45.7158
45.5866
45.242
46.677
44.0846
43.5281
47.4153
44.774
46.0107
45.5381
45.78
45.3755
46.1855
46.564
48.6928
47.6903
47.6903
48.1232
50.0568
48.5983
49.1201
49.8063
47.9434
49.604
49.604
48.4518
51.4603
51.5543
49.3926
49.3926
49.9634
53.7612
52.5093
50.04
47.5112
49.8063
52.166
50.3133
40.7149
43.3021
43.8488
45.28
42.6892
49.0021
48.6928
47.1955
47.8878
48.1922
48.4386
48.4386
48.0071
50.3197
51.551
48.6928
51.4488
51.2943
52.0098
49.8923
49.8923
48.2957
52.5093
52.0098
49.5929

SCALARS fibres double
LOOKUP_TABLE default
0
0
0
0
0
0
0
0
0
0
0
0
0
0
0
0
0
0
0
0
0
0
0
0
0
0
0
0
0
0
0
0
0
0
0
0
0
0
0
0
0
0
0
0
0
0
0
0
0
0
0
0
0
0
0
0
0
0
0
0
0
0
0
0
0
0
0
0
0
0
0
0
0
0
0
0
0
0
0
0
0
0
0
0
0
0
0
0
0
0
0
0
0
0
0
0
0
0
0
0
0
0
0
0
0
0
0
0
0
0
0
0
0
0
0
0
0
0
0
0
0
0
0
0
0
0
0
0
0
0
0
0
0
0
0
0
0
0
0
0
0
0
0
0
0
0
0
0
0
0
0
0
0
0
0
0
0
0
0
0
0
0
0
0
0
0
0
0
0
0
0
0
0
0
0
0
0
0
0
0
0
0
0
0
0
0
0
0
0
0
0
0
0
0
0
0
0
0
0
0
0
0
0
0
0
0
0
0
0
0
0
0
0
0
0
0
0
0
0
0
0
0
0
0
0
0
0
0
0
0
0
0
0
0
0
0
0
0
0
0
0
0
0
0
0
0
0
0
0
0
0
0
0
0
0
0
0
0
0
0
0
0
0
0
0
0
0
0
0
0
0
0
0
0
0
0
0
0
0
0
0
0
0
0
0
0
0
0
0
0
0
0
0
0
0
0
0
0
0
0
0
0
0
0
0
0
0
0
0
0
0
0
0
0
0
0
0
0
0
0
0
0
0
0
0
0
0
0
0
0
0
0
0
0
0
0
0
0
0
0
0
0
0
0
0
0
0
0
0
0
0
0
0
0
0
0
0
0
0
0
0
0
0
0
0
0
0
0
0
0
0
0
0
0
0
0
0
0
0
0
0
0
0
0
0
0
0
0
0
0
0
0
0
0
0
0
0
0
0
0
0
0
0
0
0
0
0
0
0
0
0
0
0
0
0
0
0
0
0
0
0
0
0
0
0
0
0
0
0
0
0
0
0
0
0
0
0
0
0
0
0
0
0
0
0
0
0
0
0
0
0
0
0
0
0
0
0
0
0
0
0
0
0
0
0
0
0
0
0
0
0
0
0
0
0
0
0
0
0
0
0
0
0
0
0
0
0
0
0
0
0
0
0
0
0
0
0
0
0
0
0
0
0
0
0
0
0
0
0
0
0

SCALARS phenot double
LOOKUP_TABLE default
7
7
7
7
7
7
7
7
7
7
7
7
7
7
7
7
7
7
7
7
7
7
7
7
7
7
7
7
7
7
7
7
7
7
7
7
7
7
7
7
7
7
7
7
7
7
7
7
7
7
7
7
7
7
7
7
7
7
7
7
7
7
7
7
7
7
7
7
7
7
7
7
7
7
7
7
7
7
7
7
7
7
7
7
7
7
7
7
7
7
7
7
7
7
7
7
7
7
7
7
7
7
7
7
7
7
7
7
7
7
7
7
7
7
7
7
7
7
7
7
7
7
7
7
7
7
7
7
7
7
7
7
7
7
7
7
7
7
7
7
7
7
7
7
7
7
7
7
7
7
7
7
7
7
7
7
7
7
7
7
7
7
7
7
7
7
7
7
7
7
7
7
7
7
7
7
7
7
7
7
7
7
7
7
7
7
7
7
7
7
7
7
7
7
7
7
7
7
7
7
7
7
7
7
7
7
7
7
7
7
7
7
7
7
7
7
7
7
7
7
7
7
7
7
7
7
7
7
7
7
7
7
7
7
7
7
7
7
7
7
7
7
7
7
7
7
7
7
7
7
7
7
7
7
7
7
7
7
7
7
7
7
7
7
7
7
7
7
7
7
7
7
7
7
7
7
7
7
7
7
7
7
7
7
7
7
7
7
7
7
7
7
7
7
7
7
7
7
7
7
7
7
7
7
7
7
7
7
7
7
7
7
7
7
7
7
7
7
7
7
7
7
7
7
7
7
7
7
7
7
7
7
7
7
7
7
7
7
7
7
7
7
7
7
7
7
7
7
7
7
7
7
7
7
7
7
7
7
7
7
7
7
7
7
7
7
7
7
7
7
7
7
7
7
7
7
7
7
7
7
7
7
7
7
7
7
7
7
7
7
7
7
7
7
7
7
7
7
7
7
7
7
7
7
7
7
7
7
7
7
7
7
7
7
7
7
7
7
7
7
7
7
7
7
7
7
7
7
7
7
7
7
7
7
7
7
7
7
7
7
7
7
7
7
7
7
7
7
7
7
7
7
7
7
7
7
7
7
7
7
7
7
7
7
7
7
7
7
7
7
7
7
7
7
7
7
7
7
7
7
7
7
7
7
7
7
7
7
7
7
7
7
7
7
7
7
7
7
7
7
7
7
7
7
7
7
7
7
7
7
7

SCALARS cont_pheno double
LOOKUP_TABLE default
0.5
0.5
0.5
0.5
0.5
0.5
0.5
0.5
0.5
0.5
0.5
0.5
0.5
0.5
0.5
0.5
0.5
0.5
0.5
0.5
0.5
0.5
0.5
0.5
0.5
0.5
0.5
0.5
0.5
0.5
0.5
0.5
0.5
0.5
0.5
0.5
0.5
0.5
0.5
0.5
0.5
0.5
0.5
0.5
0.5
0.5
0.5
0.5
0.5
0.5
0.5
0.5
0.5
0.5
0.5
0.5
0.5
0.5
0.5
0.5
0.5
0.5
0.5
0.5
0.5
0.5
0.5
0.5
0.5
0.5
0.5
0.5
0.5
0.45
0.5
0.5
0.5
0.5
0.5
0.5
0.5
0.5
0.5
0.5
0.5
0.5
0.5
0.5
0.5
0.5
0.5
0.5
0.5
0.5
0.5
0.5
0.5
0.5
0.5
0.5
0.5
0.5
0.5
0.5
0.5
0.5
0.5
0.5
0.5
0.5
0.5
0.5
0.5
0.5
0.5
0.5
0.5
0.5
0.5
0.5
0.5
0.5
0.5
0.5
0.5
0.5
0.5
0.5
0.5
0.5
0.5
0.5
0.5
0.5
0.5
0.5
0.5
0.5
0.5
0.45
0.45
0.5
0.5
0.5
0.5
0.5
0.5
0.5
0.5
0.5
0.5
0.5
0.5
0.5
0.5
0.5
0.5
0.45
0.5
0.5
0.5
0.5
0.5
0.5
0.5
0.5
0.5
0.5
0.5
0.5
0.5
0.5
0.5
0.5
0.5
0.5
0.5
0.5
0.5
0.5
0.5
0.5
0.5
0.5
0.5
0.5
0.5
0.5
0.5
0.5
0.5
0.5
0.5
0.5
0.5
0.5
0.5
0.5
0.5
0.5
0.5
0.5
0.5
0.5
0.5
0.5
0.5
0.5
0.5
0.5
0.5
0.5
0.5
0.5
0.5
0.5
0.5
0.5
0.5
0.5
0.5
0.5
0.5
0.5
0.5
0.5
0.5
0.5
0.5
0.5
0.5
0.5
0.5
0.5
0.5
0.5
0.5
0.5
0.5
0.5
0.5
0.5
0.5
0.5
0.5
0.5
0.5
0.5
0.5
0.5
0.5
0.5
0.5
0.5
0.5
0.5
0.5
0.5
0.5
0.5
0.5
0.5
0.5
0.5
0.5
0.5
0.5
0.5
0.5
0.5
0.5
0.5
0.5
0.5
0.5
0.5
0.5
0.5
0.5
0.5
0.5
0.5
0.5
0.5
0.5
0.5
0.5
0.5
0.5
0.5
0.5
0.5
0.5
0.5
0.5
0.5
0.5
0.5
0.5
0.5
0.5
0.5
0.5
0.5
0.5
0.5
0.5
0.5
0.5
0.5
0.5
0.5
0.5
0.5
0.5
0.5
0.5
0.5
0.5
0.5
0.5
0.5
0.5
0.5
0.5
0.5
0.5
0.5
0.5
0.5
0.5
0.5
0.5
0.5
0.5
0.5
0.5
0.5
0.45
0.5
0.5
0.5
0.5
0.5
0.5
0.5
0.5
0.5
0.5
0.5
0.5
0.5
0.5
0.45
0.5
0.5
0.5
0.5
0.5
0.5
0.5
0.5
0.5
0.5
0.5
0.5
0.5
0.5
0.5
0.5
0.5
0.5
0.5
0.5
0.5
0.5
0.5
0.5
0.5
0.5
0.5
0.5
0.5
0.5
0.5
0.5
0.5
0.5
0.5
0.5
0.5
0.5
0.5
0.5
0.5
0.55
0.5
0.5
0.5
0.5
0.5
0.5
0.5
0.5
0.5
0.5
0.5
0.5
0.5
0.5
0.5
0.5
0.5
0.5
0.5
0.5
0.5
0.5
0.45
0.5
0.5
0.5
0.5
0.5
0.5
0.5
0.5
0.5
0.5
0.5
0.5
0.5
0.5
0.5
0.5
0.5
0.5
0.5
0.5
0.5
0.5
0.5
0.5
0.5
0.5
0.5
0.5
0.5
0.5
0.5
0.5
0.5
0.5
0.5
0.5
0.5
0.5
0.5
0.5
0.5
0.5
0.5
0.5
0.5
0.5
0.5
0.5
0.5
0.5
0.55
0.55
0.5
0.5
0.5
0.5
0.5
0.5
0.5
0.5
0.5
0.5
0.5
0.5
0.55
0.5
0.5
0.5
0.5
0.5
0.5
0.5
0.5
0.5
0.5
0.5
0.5
0.5
0.5
0.5
0.5
0.5
0.5
0.5
0.5
0.5
0.5
0.5
0.5
0.5
0.5
0.5

SCALARS name double
LOOKUP_TABLE default
365
347
444
264
91
54
279
430
132
219
21
180
285
222
386
99
261
11
218
476
485
152
44
291
48
393
469
201
431
352
275
503
289
472
197
169
31
55
310
240
388
314
337
293
26
398
419
407
473
410
188
109
60
15
302
490
250
76
40
273
465
445
248
97
1
330
212
484
235
342
196
402
392
300
159
417
370
86
447
504
122
74
460
505
355
488
136
449
236
52
35
383
486
175
100
375
70
198
71
204
29
332
200
118
138
339
344
163
214
394
36
371
141
424
297
487
481
89
317
283
276
237
96
167
333
440
3
37
491
234
372
120
379
359
78
477
328
94
478
165
69
168
423
190
348
307
432
263
397
483
7
93
282
154
308
224
241
306
67
399
73
353
278
251
389
493
384
231
211
318
499
177
63
341
144
319
32
16
62
408
182
404
437
362
390
356
380
225
115
22
323
207
494
38
461
479
199
156
135
114
253
85
64
17
246
457
166
381
33
230
452
245
322
395
183
228
363
403
466
23
433
242
170
87
194
277
274
340
13
192
61
446
2
220
454
229
10
205
139
124
361
119
324
441
315
325
106
145
147
4
133
178
39
243
88
387
160
349
103
121
400
208
305
6
149
142
259
256
442
113
427
47
420
252
140
329
438
262
350
128
418
284
49
428
24
150
57
367
453
143
357
495
439
148
95
373
334
335
146
265
448
377
470
303
226
320
368
421
298
409
216
458
257
295
79
134
254
116
351
191
345
506
292
104
378
217
125
434
268
238
338
258
84
59
75
25
232
414
123
496
8
312
153
189
46
227
34
66
107
336
360
157
269
260
497
376
20
158
43
206
80
382
28
19
301
244
77
467
366
117
327
51
422
210
110
462
213
185
186
181
101
287
249
127
498
209
354
500
215
14
480
162
396
482
53
502
105
255
391
90
280
58
459
299
426
68
27
309
509
281
364
171
92
415
239
195
474
288
321
155
129
202
50
369
98
111
12
176
151
5
0
184
471
286
374
266
81
42
489
41
223
82
508
9
316
443
346
267
501
172
313
164
161
130
45
331
108
411
296
233
425
326
450
173
436
343
187
83
193
468
247
416
463
413
56
221
464
510
102
271
429
18
304
131
311
507
385
455
72
126
294
405
203
272
435
406
451
270
412
179
112
492
290
401
30
475
174
137
65
456
358

SCALARS interaction_phenotype double
LOOKUP_TABLE default
0
0
0
0
0
0
0
0
0
0
0
0
0
0
0
0
0
0
0
0
0
0
0
0
0
0
0
0
0
0
0
0
0
0
0
0
0
0
0
0
0
0
0
0
0
0
0
0
0
0
0
0
0
0
0
0
0
0
0
0
0
0
0
0
0
0
0
0
0
0
0
0
0
0
0
0
0
0
0
0
0
0
0
0
0
0
0
0
0
0
0
0
0
0
0
0
0
0
0
0
0
0
0
0
0
0
0
0
0
0
0
0
0
0
0
0
0
0
0
0
0
0
0
0
0
0
0
0
0
0
0
0
0
0
0
0
0
0
0
0
0
0
0
0
0
0
0
0
0
0
0
0
0
0
0
0
0
0
0
0
0
0
0
0
0
0
0
0
0
0
0
0
0
0
0
0
0
0
0
0
0
0
0
0
0
0
0
0
0
0
0
0
0
0
0
0
0
0
0
0
0
0
0
0
0
0
0
0
0
0
0
0
0
0
0
0
0
0
0
0
0
0
0
0
0
0
0
0
0
0
0
0
0
0
0
0
0
0
0
0
0
0
0
0
0
0
0
0
0
0
0
0
0
0
0
0
0
0
0
0
0
0
0
0
0
0
0
0
0
0
0
0
0
0
0
0
0
0
0
0
0
0
0
0
0
0
0
0
0
0
0
0
0
0
0
0
0
0
0
0
0
0
0
0
0
0
0
0
0
0
0
0
0
0
0
0
0
0
0
0
0
0
0
0
0
0
0
0
0
0
0
0
0
0
0
0
0
0
0
0
0
0
0
0
0
0
0
0
0
0
0
0
0
0
0
0
0
0
0
0
0
0
0
0
0
0
0
0
0
0
0
0
0
0
0
0
0
0
0
0
0
0
0
0
0
0
0
0
0
0
0
0
0
0
0
0
0
0
0
0
0
0
0
0
0
0
0
0
0
0
0
0
0
0
0
0
0
0
0
0
0
0
0
0
0
0
0
0
0
0
0
0
0
0
0
0
0
0
0
0
0
0
0
0
0
0
0
0
0
0
0
0
0
0
0
0
0
0
0
0
0
0
0
0
0
0
0
0
0
0
0
0
0
0
0
0
0
0
0
0
0
0
0
0
0
0
0
0
0
0
0
0
0
0
0
0
0
0
0
0
0
0
0
0
0
0
0
0
0
0
0

SCALARS vessel_interaction double
LOOKUP_TABLE default
0
0
0
0
0
0
0
0
0
0
0
0
0
0
0
0
0
0
0
0
0
0
0
0
0
0
0
0
0
0
0
0
0
0
0
0
0
0
0
0
0
0
0
0
0
0
0
0
0
0
0
0
0
0
0
0
0
0
0
0
0
0
0
0
0
0
0
0
0
0
0
0
0
0
0
0
0
0
0
0
0
0
0
0
0
0
0
0
0
0
0
0
0
0
0
0
0
0
0
0
0
0
0
0
0
0
0
0
0
0
0
0
0
0
0
0
0
0
0
0
0
0
0
0
0
0
0
0
0
0
0
0
0
0
0
0
0
0
0
0
0
0
0
0
0
0
0
0
0
0
0
0
0
0
0
0
0
0
0
0
0
0
0
0
0
0
0
0
0
0
0
0
0
0
0
0
0
0
0
0
0
0
0
0
0
0
0
0
0
0
0
0
0
0
0
0
0
0
0
0
0
0
0
0
0
0
0
0
0
0
0
0
0
0
0
0
0
0
0
0
0
0
0
0
0
0
0
0
0
0
0
0
0
0
0
0
0
0
0
0
0
0
0
0
0
0
0
0
0
0
0
0
0
0
0
0
0
0
0
0
0
0
0
0
0
0
0
0
0
0
0
0
0
0
0
0
0
0
0
0
0
0
0
0
0
0
0
0
0
0
0
0
0
0
0
0
0
0
0
0
0
0
0
0
0
0
0
0
0
0
0
0
0
0
0
0
0
0
0
0
0
0
0
0
0
0
0
0
0
0
0
0
0
0
0
0
0
0
0
0
0
0
0
0
0
0
0
0
0
0
0
0
0
0
0
0
0
0
0
0
0
0
0
0
0
0
0
0
0
0
0
0
0
0
0
0
0
0
0
0
0
0
0
0
0
0
0
0
0
0
0
0
0
0
0
0
0
0
0
0
0
0
0
0
0
0
0
0
0
0
0
0
0
0
0
0
0
0
0
0
0
0
0
0
0
0
0
0
0
0
0
0
0
0
0
0
0
0
0
0
0
0
0
0
0
0
0
0
0
0
0
0
0
0
0
0
0
0
0
0
0
0
0
0
0
0
0
0
0
0
0
0
0
0
0
0
0
0
0
0
0
0
0
0
0
0
0
0
0
0
0
0
0
0
0
0
0
0
0
0
0
0
0
0
0
0
0
0
0
0
0

SCALARS is_follower double
LOOKUP_TABLE default
1
1
1
1
1
1
1
1
1
1
1
1
1
1
1
1
1
1
1
1
1
1
1
1
1
1
1
1
1
1
1
1
1
1
1
1
1
1
1
1
1
1
1
1
1
1
1
1
1
1