# vtk DataFile Version 2.0
Unstructured grid legacy vtk file with point scalar data
ASCII

DATASET UNSTRUCTURED_GRID
POINTS 8 double
340.204 347.706 397.372
339.089 356.184 397.634
346.096 345.252 403.036
354.897 340.557 400.907
352.519 346.874 398.504
348.592 353.715 403.744
351.549 353.269 396.734
351.866 355.459 411.479

POINT_DATA 8
SCALARS radius double
LOOKUP_TABLE default
5.02287
5.02287
5.08666
5.08666
4.33728
5.03728
4.43728
5.03728

SCALARS status double
LOOKUP_TABLE default
1
1
1
1
1
1
1
1

SCALARS concentration double
LOOKUP_TABLE default
28.9172
30.8212
29.8337
31.0667
32.697
33.1504
32.697
35.1158

SCALARS fibres double
LOOKUP_TABLE default
0
0
0
0
0
0
0
0

SCALARS phenot double
LOOKUP_TABLE default
7
7
7
7
7
7
7
7

SCALARS cont_pheno double
LOOKUP_TABLE default
0.5
0.5
0.5
0.5
0.5
0.5
0.5
0.5

SCALARS name double
LOOKUP_TABLE default
1
4
3
0
5
2
7
6

SCALARS interaction_phenotype double
LOOKUP_TABLE default
0
0
0
0
0
0
0
0

SCALARS vessel_interaction double
LOOKUP_TABLE default
0
0
0
0
0
0
0
0

SCALARS is_follower double
LOOKUP_TABLE default
1
1
1
1
1
1
1
1

SCALARS polarised double
LOOKUP_TABLE default
0
0
0
0
0
0
0
0

