# vtk DataFile Version 2.0
Unstructured grid legacy vtk file with point scalar data
ASCII

DATASET UNSTRUCTURED_GRID
POINTS 27 double
74.7455 109.967 100.986
82.3073 105.702 100.025
78.1182 105.139 107.217
94.4061 100.832 94.0742
89.8066 103.304 100.583
91.087 97.2721 109.291
97.8857 93.8077 95.8717
102.508 93.1701 102.178
102.782 100.958 97.427
96.5992 99.402 103.163
98.515 102.949 110.602
103.286 98.4398 115.917
97.7912 104.101 119.324
96.6627 108.077 89.7745
97.2032 107.24 98.7236
103.138 104.922 104.185
101.132 110.637 113.775
97.0223 110.439 106.619
100.212 115.708 95.1309
99.6316 117.729 103.327
109.978 98.8577 94.2241
107.56 102.394 87.0778
105.999 97.605 108.27
105.382 109.722 98.1251
108.474 104.989 110.582
105.965 112.283 106.356
108.32 108.302 118.098

POINT_DATA 27
SCALARS radius double
LOOKUP_TABLE default
5.07271
5.0053
5.07271
5.09809
5.04636
5.03728
5.03728
5.0053
5.08666
5.03728
5.0053
5.04636
5.04636
5.08666
5.09809
5.0053
5.07271
5.07271
5.07271
5.07271
5.08666
5.08666
5.0053
5.03728
5.0053
5.03728
5.0053

SCALARS status double
LOOKUP_TABLE default
1
1
1
1
1
1
1
1
1
1
1
1
1
1
1
1
1
1
1
1
1
1
1
1
1
1
1

SCALARS concentration double
LOOKUP_TABLE default
38.9575
38.9575
38.9575
38.9575
38.9575
38.9575
38.9575
38.9575
38.9575
38.9575
38.9575
38.9575
38.9575
38.9575
38.9575
38.9575
38.9575
38.9575
38.9575
38.9575
38.9575
38.9575
38.9575
38.9575
38.9575
38.9575
38.9575

SCALARS fibres double
LOOKUP_TABLE default
0
0
0
0
0
0
0
0
0
0
0
0
0
0
0
0
0
0
0
0
0
0
0
0
0
0
0

SCALARS phenot double
LOOKUP_TABLE default
7
7
7
7
7
7
7
7
7
7
7
7
7
7
7
7
7
7
7
7
7
7
7
7
7
7
7

SCALARS cont_pheno double
LOOKUP_TABLE default
0.5
0.5
0.5
0.5
0.5
0.5
0.5
0.5
0.5
0.5
0.5
0.5
0.5
0.5
0.5
0.5
0.5
0.5
0.5
0.5
0.5
0.5
0.5
0.5
0.5
0.5
0.5

SCALARS name double
LOOKUP_TABLE default
21
15
26
2
11
1
3
23
0
10
4
13
16
6
7
20
14
22
24
17
5
25
8
9
12
18
19

SCALARS interaction_phenotype double
LOOKUP_TABLE default
0
0
0
0
0
0
0
0
0
0
0
0
0
0
0
0
0
0
0
0
0
0
0
0
0
0
0

SCALARS vessel_interaction double
LOOKUP_TABLE default
0
0
0
0
0
0
0
0
0
0
0
0
0
0
0
0
0
0
0
0
0
0
0
0
0
0
0

SCALARS is_follower double
LOOKUP_TABLE default
1
1
1
1
1
1
1
1
1
1
1
1
1
1
1
1
1
1
1
1
1
1
1
1
1
1
1

SCALARS polarised double
LOOKUP_TABLE default
0
0
0
0
0
0
0
0
0
0
0
0
0
0
0
0
0
0
0
0
0
0
0
0
0
0
0

