# vtk DataFile Version 2.0
Unstructured grid legacy vtk file with point scalar data
ASCII

DATASET UNSTRUCTURED_GRID
POINTS 29 double
334.43 347.477 393.558
328.316 360.417 394.312
335.554 355.948 395.401
344.185 343.101 383.584
344.274 344.34 391.328
343.993 337.955 394.492
337.997 340.173 395.475
344.551 344.255 404.37
339.686 346.136 373.057
337.688 352.038 378.668
338.816 349.055 386.523
340.383 349.664 399.223
339.011 349.482 407.855
338.705 356.727 403.328
354.504 338.669 395.332
347.381 340.509 398.312
352.796 342.725 402.753
350.421 345.403 410.765
348.986 348.415 397.966
353.854 350.92 404.803
345.922 352.715 405.111
350.183 359.288 396.259
351.195 359.501 404.44
352.526 357.334 412.71
356.233 334.804 403.05
356.034 330.21 396.197
361.109 346.076 404.397
356.243 353.04 396.49
359.194 352.952 410.239

POINT_DATA 29
SCALARS radius double
LOOKUP_TABLE default
5.09809
5.03728
5.03728
5.04636
5.04636
4.14636
5.09809
5.04636
5.0053
5.0053
5.04636
5.08666
5.03728
5.08666
5.09809
4.24636
5.09809
5.04636
5.03728
5.04636
5.04636
5.09809
5.04636
5.03728
5.04636
5.04636
5.09809
5.09809
5.04636

SCALARS status double
LOOKUP_TABLE default
1
1
1
1
1
1
1
1
1
1
1
1
1
1
1
1
1
1
1
1
1
1
1
1
1
1
1
1
1

SCALARS concentration double
LOOKUP_TABLE default
28.0427
29.4697
29.4697
28.6272
28.6272
29.5891
27.2543
29.5891
28.2624
28.2624
28.2624
29.5077
29.6259
30.3324
30.0396
29.5891
31.2776
29.5891
32.82
32.7708
32.7708
35.0795
32.7708
35.4301
29.51
29.51
34.2747
35.0795
32.7708

SCALARS fibres double
LOOKUP_TABLE default
0
0
0
0
0
0
0
0
0
0
0
0
0
0
0
0
0
0
0
0
0
0
0
0
0
0
0
0
0

SCALARS phenot double
LOOKUP_TABLE default
7
7
7
7
7
7
7
7
7
7
7
7
7
7
7
7
7
7
7
7
7
7
7
7
7
7
7
7
7

SCALARS cont_pheno double
LOOKUP_TABLE default
0.5
0.5
0.5
0.5
0.5
0.5
0.5
0.5
0.5
0.5
0.5
0.5
0.5
0.5
0.5
0.5
0.5
0.5
0.5
0.5
0.5
0.5
0.5
0.5
0.5
0.5
0.5
0.5
0.5

SCALARS name double
LOOKUP_TABLE default
8
17
4
27
13
28
16
19
22
26
14
1
9
11
12
3
10
21
5
18
2
7
20
6
0
23
15
25
24

SCALARS interaction_phenotype double
LOOKUP_TABLE default
0
0
0
0
0
0
0
0
0
0
0
0
0
0
0
0
0
0
0
0
0
0
0
0
0
0
0
0
0

SCALARS vessel_interaction double
LOOKUP_TABLE default
0
0
0
0
0
0
0
0
0
0
0
0
0
0
0
0
0
0
0
0
0
0
0
0
0
0
0
0
0

SCALARS is_follower double
LOOKUP_TABLE default
1
1
1
1
1
1
1
1
1
1
1
1
1
1
1
1
1
1
1
1
1
1
1
1
1
1
1
1
1

SCALARS polarised double
LOOKUP_TABLE default
0
0
0
0
0
0
0
0
0
0
0
0
0
0
0
0
0
0
0
0
0
0
0
0
0
0
0
0
0

