# vtk DataFile Version 2.0
Unstructured grid legacy vtk file with point scalar data
ASCII

DATASET UNSTRUCTURED_GRID
POINTS 20 double
329.527 358.969 394.6
343.563 344.397 389.649
339.096 339.015 395.58
337.466 348.921 382.733
336.638 349.357 390.916
341.482 349.662 399.196
339.624 348.964 407.875
337.292 355.947 395.433
338.111 355.628 403.956
346.336 342.393 397.913
353.932 342.078 403.895
353.502 339.189 395.632
351.497 348.838 398.534
346.881 353.964 404.245
346.87 345.789 405.528
354.947 350.382 406.038
351.198 357.048 397.656
351.934 357 410.707
356.72 334.569 402.152
361.797 345.498 403.951

POINT_DATA 20
SCALARS radius double
LOOKUP_TABLE default
5.03728
5.09809
5.09809
5.09809
5.09809
5.08666
5.03728
5.03728
5.08666
5.09809
5.09809
5.09809
5.03728
5.09809
5.09809
5.09809
5.03728
5.03728
5.09809
5.09809

SCALARS status double
LOOKUP_TABLE default
1
1
1
1
1
1
1
1
1
1
1
1
1
1
1
1
1
1
1
1

SCALARS concentration double
LOOKUP_TABLE default
29.4697
28.6272
27.2543
28.2624
28.0427
29.5077
29.6259
29.4697
30.3324
29.5891
31.2776
30.0396
32.82
32.7708
29.5891
32.7708
35.0795
35.4301
29.51
34.2747

SCALARS fibres double
LOOKUP_TABLE default
0
0
0
0
0
0
0
0
0
0
0
0
0
0
0
0
0
0
0
0

SCALARS phenot double
LOOKUP_TABLE default
7
7
7
7
7
7
7
7
7
7
7
7
7
7
7
7
7
7
7
7

SCALARS cont_pheno double
LOOKUP_TABLE default
0.5
0.5
0.5
0.5
0.5
0.5
0.5
0.5
0.5
0.5
0.5
0.5
0.5
0.5
0.5
0.5
0.5
0.5
0.5
0.5

SCALARS name double
LOOKUP_TABLE default
17
13
16
14
8
1
9
4
11
3
10
12
5
2
19
18
7
6
0
15

SCALARS interaction_phenotype double
LOOKUP_TABLE default
0
0
0
0
0
0
0
0
0
0
0
0
0
0
0
0
0
0
0
0

SCALARS vessel_interaction double
LOOKUP_TABLE default
0
0
0
0
0
0
0
0
0
0
0
0
0
0
0
0
0
0
0
0

SCALARS is_follower double
LOOKUP_TABLE default
1
1
1
1
1
1
1
1
1
1
1
1
1
1
1
1
1
1
1
1

SCALARS polarised double
LOOKUP_TABLE default
0
0
0
0
0
0
0
0
0
0
0
0
0
0
0
0
0
0
0
0

