# vtk DataFile Version 2.0
Unstructured grid legacy vtk file with point scalar data
ASCII

DATASET UNSTRUCTURED_GRID
POINTS 20 double
330.046 359.486 394.667
343.442 344.509 389.123
340.385 339.588 396.01
337.692 349.631 382.576
336.028 349.24 390.954
340.925 349.8 398.465
341.044 348.554 406.757
336.888 356.184 395.686
338.368 355.877 403.955
346.205 342.961 399.962
353.045 342.588 403.835
352.271 339.915 396.164
351.656 348.386 397.445
348.531 351.91 403.981
354.507 349.911 404.956
346.65 346.293 404.297
350.866 356.598 398.108
351.697 356.105 410.071
356.117 335.07 401.993
360.969 346.014 404.305

POINT_DATA 20
SCALARS radius double
LOOKUP_TABLE default
4.73728
5.09809
5.09809
5.09809
5.09809
5.08666
5.03728
4.83728
5.08666
4.19809
5.09809
5.09809
5.03728
4.39809
4.39809
4.19809
5.03728
5.03728
5.09809
5.09809

SCALARS status double
LOOKUP_TABLE default
1
1
1
1
1
1
1
1
1
1
1
1
1
1
1
1
1
1
1
1

SCALARS concentration double
LOOKUP_TABLE default
29.4697
28.6272
27.2543
28.2624
28.0427
29.5077
29.6259
29.4697
30.3324
29.5891
31.2776
30.0396
32.82
32.7708
32.7708
29.5891
35.0795
35.4301
29.51
34.2747

SCALARS fibres double
LOOKUP_TABLE default
0
0
0
0
0
0
0
0
0
0
0
0
0
0
0
0
0
0
0
0

SCALARS phenot double
LOOKUP_TABLE default
7
7
7
7
7
7
7
7
7
7
7
7
7
7
7
7
7
7
7
7

SCALARS cont_pheno double
LOOKUP_TABLE default
0.5
0.5
0.5
0.5
0.5
0.5
0.5
0.5
0.5
0.5
0.5
0.5
0.5
0.5
0.5
0.5
0.5
0.5
0.5
0.5

SCALARS name double
LOOKUP_TABLE default
17
13
16
14
8
1
9
4
11
3
10
12
5
2
18
19
7
6
0
15

SCALARS interaction_phenotype double
LOOKUP_TABLE default
0
0
0
0
0
0
0
0
0
0
0
0
0
0
0
0
0
0
0
0

SCALARS vessel_interaction double
LOOKUP_TABLE default
0
0
0
0
0
0
0
0
0
0
0
0
0
0
0
0
0
0
0
0

SCALARS is_follower double
LOOKUP_TABLE default
1
1
1
1
1
1
1
1
1
1
1
1
1
1
1
1
1
1
1
1

SCALARS polarised double
LOOKUP_TABLE default
0
0
0
0
0
0
0
0
0
0
0
0
0
0
0
0
0
0
0
0

