# vtk DataFile Version 2.0
Unstructured grid legacy vtk file with point scalar data
ASCII

DATASET UNSTRUCTURED_GRID
POINTS 14 double
342.028 343.386 391.187
337.627 349.999 389.768
340.059 349.153 398.72
341.988 348.986 407.258
336.427 356.16 395.313
338.033 356.036 403.502
346.507 343.931 401.505
354.646 344.1 403.848
353.07 340.226 396.349
351.898 348.595 396.946
350.133 351.449 404.318
350.695 356.889 398.046
352.198 356.099 411.207
356.409 334.593 402.122

POINT_DATA 14
SCALARS radius double
LOOKUP_TABLE default
5.03728
5.03728
5.08666
5.03728
5.08666
5.08666
5.03728
5.03728
5.09809
5.03728
5.03728
5.03728
5.03728
5.09809

SCALARS status double
LOOKUP_TABLE default
1
1
1
1
1
1
1
1
1
1
1
1
1
1

SCALARS concentration double
LOOKUP_TABLE default
28.9524
28.9524
28.946
29.9528
29.7958
29.7958
30.1282
30.3382
30.3382
32.4076
33.2695
34.6548
35.0423
30.3382

SCALARS fibres double
LOOKUP_TABLE default
0
0
0
0
0
0
0
0
0
0
0
0
0
0

SCALARS phenot double
LOOKUP_TABLE default
7
7
7
7
7
7
7
7
7
7
7
7
7
7

SCALARS cont_pheno double
LOOKUP_TABLE default
0.5
0.5
0.5
0.5
0.5
0.5
0.5
0.5
0.5
0.5
0.5
0.5
0.5
0.5

SCALARS name double
LOOKUP_TABLE default
13
8
1
9
4
11
3
10
12
5
2
7
6
0

SCALARS interaction_phenotype double
LOOKUP_TABLE default
0
0
0
0
0
0
0
0
0
0
0
0
0
0

SCALARS vessel_interaction double
LOOKUP_TABLE default
0
0
0
0
0
0
0
0
0
0
0
0
0
0

SCALARS is_follower double
LOOKUP_TABLE default
1
1
1
1
1
1
1
1
1
1
1
1
1
1

SCALARS polarised double
LOOKUP_TABLE default
0
0
0
0
0
0
0
0
0
0
0
0
0
0

