# vtk DataFile Version 2.0
Unstructured grid legacy vtk file with point scalar data
ASCII

DATASET UNSTRUCTURED_GRID
POINTS 157 double
320.509 355.522 384.579
316.42 351.789 391.119
324.938 351.163 390.046
320.802 358.716 393.244
321.079 358.864 401.953
333.174 330.978 396.953
326.437 343.385 387.042
335.117 338.014 392.514
330.67 354.423 383.032
333.329 348.571 388.482
331.501 355.536 393.877
332.166 346.188 396.918
333.281 353.904 401.705
332.33 352.646 410.098
335.002 346.235 405.551
330.455 363.157 381.756
327.13 359.853 388.504
335.745 358.956 387.24
329.33 364.159 395.852
334.977 362.705 403.011
335.787 359.424 411.808
328.627 371.603 383.267
345.384 331.201 382.842
336.396 330.767 388.889
342.038 333.211 395.069
340.956 332.958 403.912
336.99 332.229 399.189
345.046 336.098 373.096
343.002 344.154 384.447
340.939 337.424 380.032
336.671 344.976 379.062
345.078 343.869 376.045
342.716 336.407 388.176
339.81 345.077 392.182
338.619 340.553 399.314
343.997 344.601 404.866
340.227 343.437 412.202
343.147 338.611 414.833
342.974 338.165 420.061
336.283 346.271 370.655
340.923 351.301 375.367
339.408 351.863 383.564
339.077 353.915 392.224
340.044 349.033 398.998
339.823 352.587 406.292
340.102 352.127 414.998
343.518 346.332 420.163
336.121 358.075 377.542
337.95 362.617 394.546
345.263 363.941 389.293
341.076 358.128 400.076
343.428 358.184 410.523
342.914 365.958 400.574
340.955 365.889 408.709
354.31 321.972 391.631
350.093 329.644 376.231
348.951 326.749 388.184
350.26 333.214 393.815
353.479 333.555 386.935
354.112 326.35 398.502
348.195 329.968 403.608
355.547 333.204 399.614
352.913 334.002 404.742
349.475 334.635 415.297
349.674 338.829 381.875
348.213 341.518 390.461
354.785 339.948 396.222
346.869 337.754 399.935
347.344 345.541 396.926
345.771 336.628 407.898
353.111 339.969 405.26
348.449 343.037 411.751
350.744 341.313 419.864
347.083 349.074 380.297
346.671 354.873 383.453
346.371 349.873 389.128
354.244 351.487 385.943
353.848 347.316 392.097
354.778 355.159 394.262
346.038 354.092 395.823
347.452 351.837 402.159
355.378 355.05 401.931
351.968 346.988 405.007
346.73 351.067 409.826
354.62 353.34 413.938
352.669 353.778 407.503
350.303 348.662 416.578
350.967 348.463 424.524
350.577 360.705 383.791
355.021 362.686 390.099
348.028 358.809 391.243
350.537 364.332 397.178
348.502 359.581 403.851
354.722 360.139 410.149
347.865 364.211 412.428
348.079 356.104 416.956
351.333 363.255 419.223
345.892 370.244 390
349.606 367.567 405.417
361.975 324.405 392.843
361.442 324.849 402.686
357.474 323.903 414.884
361.609 335.556 384.287
359.587 332.798 394.147
359.068 328.045 386.842
359.866 331.846 413.592
355.881 327.661 406.989
359.487 335.157 405.984
359.079 337.536 376.404
356.294 341.053 387.745
361.646 344.464 393.069
363.347 339.196 399.069
356.243 340.231 412.89
361.427 342.608 406.857
363.473 344.943 413.926
355.652 336.882 424.279
361.462 338.449 418.972
359.86 343.787 426.653
360.021 354.459 382.222
361.385 346.504 384.901
361.753 353.142 390.26
356.11 347.612 398.741
363.815 348.254 401.07
358.988 349.797 408.153
361.146 352.834 415.431
357.34 346.449 419.169
364.801 347.56 421.243
359.806 355.966 374.502
362.074 361.287 386.208
361.791 359.98 394.992
356.776 362.987 402.499
364.925 364.079 401.479
362.708 357.946 407.623
363.462 360.542 416.963
356.3 357.222 421.323
356.594 371.925 402.63
358.963 367.514 396.06
357.167 367.979 409.478
358.143 365.782 416.404
366.393 331.711 402.309
367.731 341.382 383.403
366.463 337.202 391.463
371.786 344.831 404.348
366.925 336.545 409.665
373.237 341.61 411.988
366.421 349.877 379.245
368.455 348.371 388.285
369.358 345.807 396.017
374.452 351.641 399.909
367.214 350.172 408.751
373.684 349.466 415.429
367.198 352.134 425.861
367.373 355.991 399.796
368.867 355.835 414.064
366.596 365.863 389.642
367.545 367.787 395.297
375.496 351.373 407.953

POINT_DATA 157
SCALARS radius double
LOOKUP_TABLE default
5.07271
5.07271
5.0053
5.0053
5.04636
4.18931
5.0053
5.09809
5.08931
5.04636
5.03728
5.08931
5.02621
5.03728
5.08931
5.07271
5.07271
5.02621
5.04636
5.09809
5.09809
5.0053
5.03939
5.02621
5.02621
5.07271
4.18931
5.02621
5.02621
5.07271
5.02621
5.02621
5.02621
5.04636
5.02621
5.07271
5.02621
4.18931
4.08931
5.0053
5.07271
5.04636
5.08666
5.04636
5.07271
5.02621
5.02621
5.08931
5.09809
4.37271
5.02621
5.08931
5.0053
5.09809
4.97271
5.03939
5.08931
5.02621
4.97271
5.04636
5.02621
4.28931
4.38931
5.02621
5.08931
5.08931
5.08931
5.04636
5.04636
5.02621
5.04636
5.07271
5.02621
4.62621
4.72621
5.09809
5.08931
5.08931
5.02621
5.07271
5.02621
5.02621
5.04636
5.02621
4.58931
4.58931
5.07271
5.02621
5.0053
5.0053
5.07271
5.0053
5.02621
5.08931
5.08931
5.02621
5.04636
4.37271
5.08931
4.87271
5.02621
5.02621
5.08931
5.02621
4.97271
5.02621
5.02621
5.08931
5.08931
5.08931
5.02621
5.0053
5.07271
5.09976
5.01614
5.03939
5.07271
5.03939
5.02621
5.02621
5.07271
5.02621
5.09976
5.03939
5.08931
5.06002
4.78131
5.02621
5.07271
5.02621
5.02621
5.03939
5.07271
5.04636
5.04636
5.03939
5.03939
5.08931
5.04636
5.07271
5.07271
5.07271
5.02621
5.08931
5.02621
5.02621
5.02621
5.02621
5.02621
5.08931
5.08931
4.78131
5.02621
5.04636
4.29976
4.19976
5.08931

SCALARS status double
LOOKUP_TABLE default
1
1
1
1
1
1
1
1
1
1
1
1
1
1
1
1
1
1
1
1
1
1
1
1
1
1
1
1
1
1
1
1
1
1
1
1
1
1
1
1
1
1
1
1
1
1
1
1
1
1
1
1
1
1
1
1
1
1
1
1
1
1
1
2
1
1
1
1
1
2
1
1
1
1
1
1
1
1
1
1
1
1
1
1
1
1
1
1
1
1
1
1
1
1
1
1
1
1
1
1
1
1
1
1
1
1
1
1
1
1
1
1
1
1
1
1
1
1
1
1
1
1
1
1
1
1
1
1
1
1
1
1
1
1
1
1
1
1
1
1
1
1
1
1
1
1
1
1
1
1
1
1
1
1
1
1
1

SCALARS concentration double
LOOKUP_TABLE default
24.7942
23.5194
25.321
25.9889
25.7322
25.5717
24.0844
25.3126
27.7847
26.8728
27.858
26.771
28.8221
28.3593
27.5602
28.6346
27.787
30.2151
28.9424
30.7367
31.5227
29.2474
26.6685
24.1581
25.5717
25.7747
25.5717
27.2801
28.8234
26.6542
27.0627
29.394
26.668
28.1989
27.0963
29.4342
28.0615
27.4487
27.4487
27.0407
29.5497
29.3295
29.9692
29.4743
30.7275
30.2779
30.0704
29.9942
31.3779
35.4046
32.0497
34.8785
34.2712
31.5227
26.9519
26.6685
26.1631
27.5612
28.597
26.5497
27.2741
28.9406
28.9406
27.74
29.3183
29.4221
30.5223
28.1254
30.4398
27.9202
30.4009
30.4074
30.3512
32.0754
32.0754
31.5618
33.5817
33.5817
36.1975
33.8209
32.4291
35.4076
32.1451
32.9792
32.9792
32.9792
32.2918
32.4575
34.9804
37.8854
33.8209
37.4122
34.9019
37.0314
34.8785
33.8864
37.9739
35.4046
37.5604
26.9519
27.4778
26.5225
30.9724
29.6674
28.597
29.4055
27.4778
30.3001
30.7793
31.3534
34.1355
32.6911
31.0728
33.4136
35.0028
32.6165
31.9557
32.6165
36.5361
34.5008
37.6024
33.5894
35.8293
35.3266
37.4144
34.1189
36.5614
36.5361
41.7316
40.4923
38.9262
43.3817
40.2293
40.9927
37.4413
41.4081
41.9123
40.0452
40.9927
30.4461
33.7889
31.6768
36.5989
30.3001
35.8525
36.6972
37.008
36.9181
41.1139
37.8774
40.4647
36.5614
40.2038
41.3298
45.6975
45.6975
40.4647

SCALARS fibres double
LOOKUP_TABLE default
0
0
0
0
0
0
0
0
0
0
0
0
0
0
0
0
0
0
0
0
0
0
0
0
0
0
0
0
0
0
0
0
0
0
0
0
0
0
0
0
0
0
0
0
0
0
0
0
0
0
0
0
0
0
0
0
0
0
0
0
0
0
0
0
0
0
0
0
0
0
0
0
0
0
0
0
0
0
0
0
0
0
0
0
0
0
0
0
0
0
0
0
0
0
0
0
0
0
0
0
0
0
0
0
0
0
0
0
0
0
0
0
0
0
0
0
0
0
0
0
0
0
0
0
0
0
0
0
0
0
0
0
0
0
0
0
0
0
0
0
0
0
0
0
0
0
0
0
0
0
0
0
0
0
0
0
0

SCALARS phenot double
LOOKUP_TABLE default
7
7
7
7
7
7
7
7
7
7
7
7
7
7
7
7
7
7
7
7
7
7
7
7
7
7
7
7
7
7
7
7
7
7
7
7
7
7
7
7
7
7
7
7
7
7
7
7
7
7
7
7
7
7
7
7
7
7
7
7
7
7
7
7
7
7
7
7
7
7
7
7
7
7
7
7
7
7
7
7
7
7
7
7
7
7
7
7
7
7
7
7
7
7
7
7
7
7
7
7
7
7
7
7
7
7
7
7
7
7
7
7
7
7
7
7
7
7
7
7
7
7
7
7
7
7
7
7
7
7
7
7
7
7
7
7
7
7
7
7
7
7
7
7
7
7
7
7
7
7
7
7
7
7
7
7
7

SCALARS cont_pheno double
LOOKUP_TABLE default
0.5
0.5
0.5
0.5
0.5
0.5
0.5
0.5
0.5
0.5
0.5
0.5
0.5
0.5
0.5
0.5
0.5
0.5
0.5
0.5
0.5
0.5
0.5
0.5
0.5
0.5
0.5
0.5
0.5
0.5
0.5
0.5
0.5
0.5
0.5
0.5
0.5
0.5
0.5
0.5
0.5
0.5
0.5
0.5
0.5
0.5
0.5
0.5
0.5
0.5
0.5
0.5
0.5
0.5
0.55
0.5
0.5
0.5
0.55
0.5
0.5
0.5
0.5
0.45
0.5
0.5
0.5
0.5
0.5
0.45
0.5
0.5
0.5
0.5
0.5
0.5
0.5
0.5
0.5
0.5
0.5
0.5
0.5
0.5
0.5
0.5
0.5
0.5
0.5
0.5
0.5
0.5
0.5
0.5
0.5
0.5
0.5
0.5
0.5
0.55
0.5
0.5
0.5
0.5
0.55
0.5
0.5
0.5
0.5
0.5
0.5
0.5
0.5
0.5
0.5
0.5
0.5
0.5
0.55
0.5
0.5
0.5
0.5
0.5
0.5
0.5
0.5
0.55
0.5
0.5
0.5
0.5
0.5
0.5
0.5
0.5
0.5
0.5
0.5
0.5
0.5
0.5
0.5
0.5
0.5
0.5
0.5
0.5
0.5
0.5
0.5
0.5
0.5
0.5
0.5
0.5
0.5

SCALARS name double
LOOKUP_TABLE default
69
105
122
35
49
135
107
16
32
8
4
91
115
9
66
83
132
60
17
11
54
104
140
120
28
46
155
47
27
106
111
112
52
13
34
19
58
156
89
22
26
14
1
5
67
56
85
95
86
41
119
141
38
139
148
123
87
59
37
23
0
131
152
82
96
40
109
3
108
36
10
31
21
81
150
90
39
142
100
144
2
127
121
93
134
151
128
30
102
25
7
63
92
114
20
79
129
153
124
75
138
113
133
12
147
45
94
101
70
78
72
48
15
99
57
137
61
42
118
64
98
73
110
77
74
62
103
145
51
76
33
97
71
50
6
65
130
84
143
53
80
44
117
136
55
125
29
88
43
18
146
149
68
24
154
126
116

SCALARS interaction_phenotype double
LOOKUP_TABLE default
0
0
0
0
0
0
0
0
0
0
0
0
0
0
0
0
0
0
0
0
0
0
0
0
0
0
0
0
0
0
0
0
0
0
0
0
0
0
0
0
0
0
0
0
0
0
0
0
0
0
0
0
0
0
0
0
0
0
0
0
0
0
0
0
0
0
0
0
0
0
0
0
0
0
0
0
0
0
0
0
0
0
0
0
0
0
0
0
0
0
0
0
0
0
0
0
0
0
0
0
0
0
0
0
0
0
0
0
0
0
0
0
0
0
0
0
0
0
0
0
0
0
0
0
0
0
0
0
0
0
0
0
0
0
0
0
0
0
0
0
0
0
0
0
0
0
0
0
0
0
0
0
0
0
0
0
0

SCALARS vessel_interaction double
LOOKUP_TABLE default
0
0
0
0
0
0
0
0
0
0
0
0
0
0
0
0
0
0
0
0
0
0
0
0
0
0
0
0
0
0
0
0
0
0
0
0
0
0
0
0
0
0
0
0
0
0
0
0
0
0
0
0
0
0
0
0
0
0
0
0
0
0
0
0
0
0
0
0
0
0
0
0
0
0
0
0
0
0
0
0
0
0
0
0
0
0
0
0
0
0
0
0
0
0
0
0
0
0
0
0
0
0
0
0
0
0
0
0
0
0
0
0
0
0
0
0
0
0
0
0
0
0
0
0
0
0
0
0
0
0
0
0
0
0
0
0
0
0
0
0
0
0
0
0
0
0
0
0
0
0
0
0
0
0
0
0
0

SCALARS is_follower double
LOOKUP_TABLE default
1
1
1
1
1
1
1
1
1
1
1
1
1
1
1
1
1
1
1
1
1
1
1
1
1
1
1
1
1
1
1
1
1
1
1
1
1
1
1
1
1
1
1
1
1
1
1
1
1
1
1
1
1
1
1
1
1
1
1
1
1
1
1
1
1
1
1
1
1
1
1
1
1
1
1
1
1
1
1
1
1
1
1
1
1
1
1
1
1
1
1
1
1
1
1
1
1
1
1
1
1
1
1
1
1
1
1
1
1
1
1
1
1
1
1
1
1
1
1
1
1
1
1
1
1
1
1
1
1
1
1
1
1
1
1
1
1
1
1
1
1
1
1
1
1
1
1
1
1
1
1
1
1
1
1
1
1

SCALARS polarised double
LOOKUP_TABLE default
0
0
0
0
0
0
0
0
0
0
0
0
0
0
0
0
0
0
0
0
0
0
0
0
0
0
0
0
0
0
0
0
0
0
0
0
0
0
0
0
0
0
0
0
0
0
0
0
0
0
0
0
0
0
0
0
0
0
0
0
0
0
0
0
0
0
0
0
0
0
0
0
0
0
0
0
0
0
0
0
0
0
0
0
0
0
0
0
0
0
0
0
0
0
0
0
0
0
0
0
0
0
0
0
0
0
0
0
0
0
0
0
0
0
0
0
0
0
0
0
0
0
0
0
0
0
0
0
0
0
0
0
0
0
0
0
0
0
0
0
0
0
0
0
0
0
0
0
0
0
0
0
0
0
0
0
0

