# vtk DataFile Version 2.0
Unstructured grid legacy vtk file with point scalar data
ASCII

DATASET UNSTRUCTURED_GRID
POINTS 36 double
73.9849 110.765 101.428
80.9836 106.796 99.572
78.1232 105.103 106.995
94.9294 102.001 93.8158
88.3786 103.595 99.2633
91.1028 98.2718 108.915
88.7144 99.2141 114.591
93.304 102.413 120.942
92.2355 110.579 92.975
95.2623 107.902 114.993
97.6008 93.9905 95.098
103.533 92.7432 101.077
97.0658 94.4513 106.146
102.762 100.462 97.2183
95.9261 102.107 102.504
98.0524 102.268 110.199
104.73 97.2313 108.108
101.805 97.3668 116.395
101.473 104.671 120.99
98.3743 107.925 87.3352
98.7507 108.487 97.8412
103.443 105.624 104.53
103.836 114.162 101.456
97.0721 110.744 106.679
103.466 109.223 114.102
99.3144 115.631 93.8754
96.5415 118.961 101.068
97.4346 119.316 109.512
108.147 103.816 81.4124
110.467 97.7014 94.6527
106.12 101.649 88.7025
108.76 104.032 110.186
107.07 107.505 96.7709
108.376 112.351 108.312
106.985 110.495 122.109
112.182 109.115 115.441

POINT_DATA 36
SCALARS radius double
LOOKUP_TABLE default
5.07271
5.0053
5.07271
5.09809
5.04636
4.19809
4.29809
5.07271
5.03728
5.07271
5.03728
5.0053
5.09809
5.08666
5.09809
5.0053
5.0053
5.04636
5.0053
5.03728
5.09809
5.0053
5.09809
5.07271
5.07271
5.07271
5.02621
5.02621
4.93728
5.08666
5.03728
5.0053
5.03728
5.09809
5.07271
5.07271

SCALARS status double
LOOKUP_TABLE default
1
1
1
1
1
1
1
1
1
1
1
1
1
1
1
1
1
1
1
1
1
1
1
1
1
1
1
1
1
1
1
1
1
1
1
1

SCALARS concentration double
LOOKUP_TABLE default
38.9575
38.9575
38.9575
38.9575
38.9575
38.9575
38.9575
38.9575
38.9575
38.9575
38.9575
38.9575
38.9575
38.9575
38.9575
38.9575
38.9575
38.9575
38.9575
38.9575
38.9575
38.9575
38.9575
38.9575
38.9575
38.9575
38.9575
38.9575
38.9575
38.9575
38.9575
38.9575
38.9575
38.9575
38.9575
38.9575

SCALARS fibres double
LOOKUP_TABLE default
0
0
0
0
0
0
0
0
0
0
0
0
0
0
0
0
0
0
0
0
0
0
0
0
0
0
0
0
0
0
0
0
0
0
0
0

SCALARS phenot double
LOOKUP_TABLE default
7
7
7
7
7
7
7
7
7
7
7
7
7
7
7
7
7
7
7
7
7
7
7
7
7
7
7
7
7
7
7
7
7
7
7
7

SCALARS cont_pheno double
LOOKUP_TABLE default
0.5
0.5
0.5
0.5
0.5
0.5
0.5
0.5
0.5
0.5
0.5
0.5
0.5
0.5
0.5
0.5
0.5
0.5
0.5
0.5
0.5
0.5
0.5
0.5
0.5
0.5
0.5
0.5
0.5
0.5
0.5
0.5
0.5
0.5
0.5
0.5

SCALARS name double
LOOKUP_TABLE default
21
15
26
2
11
1
35
16
31
32
3
23
10
0
29
4
8
13
28
6
7
20
27
22
14
24
17
33
34
5
25
12
9
18
19
30

SCALARS interaction_phenotype double
LOOKUP_TABLE default
0
0
0
0
0
0
0
0
0
0
0
0
0
0
0
0
0
0
0
0
0
0
0
0
0
0
0
0
0
0
0
0
0
0
0
0

SCALARS vessel_interaction double
LOOKUP_TABLE default
0
0
0
0
0
0
0
0
0
0
0
0
0
0
0
0
0
0
0
0
0
0
0
0
0
0
0
0
0
0
0
0
0
0
0
0

SCALARS is_follower double
LOOKUP_TABLE default
1
1
1
1
1
1
1
1
1
1
1
1
1
1
1
1
1
1
1
1
1
1
1
1
1
1
1
1
1
1
1
1
1
1
1
1

SCALARS polarised double
LOOKUP_TABLE default
0
0
0
0
0
0
0
0
0
0
0
0
0
0
0
0
0
0
0
0
0
0
0
0
0
0
0
0
0
0
0
0
0
0
0
0

