# vtk DataFile Version 2.0
Unstructured grid legacy vtk file with point scalar data
ASCII

DATASET UNSTRUCTURED_GRID
POINTS 16 double
82.0411 104.571 100.65
94.4983 100.692 94.4051
89.9836 103.55 100.582
88.9643 97.517 109.902
97.6161 93.8935 97.6513
102.121 100.979 99.3234
95.653 98.769 104.525
99.6619 103.562 111.363
103.585 97.2734 106.781
104.065 96.9709 115.222
95.6843 107.495 89.0499
97.2605 107.448 101.289
100.27 111.631 108.278
108.02 100.074 93.2921
105.263 109.265 101.462
107.618 108.163 109.546

POINT_DATA 16
SCALARS radius double
LOOKUP_TABLE default
5.04636
5.09809
5.04636
5.03728
5.03728
5.08666
5.03728
5.09809
5.04636
5.04636
5.08666
5.09809
5.04636
5.02287
5.08666
5.04636

SCALARS status double
LOOKUP_TABLE default
1
1
1
1
1
1
1
1
1
1
1
1
1
1
1
1

SCALARS concentration double
LOOKUP_TABLE default
38.9575
38.9575
38.9575
38.9575
38.9575
38.9575
38.9575
38.9575
38.9575
38.9575
38.9575
38.9575
38.9575
38.9575
38.9575
38.9575

SCALARS fibres double
LOOKUP_TABLE default
0
0
0
0
0
0
0
0
0
0
0
0
0
0
0
0

SCALARS phenot double
LOOKUP_TABLE default
7
7
7
7
7
7
7
7
7
7
7
7
7
7
7
7

SCALARS cont_pheno double
LOOKUP_TABLE default
0.5
0.5
0.5
0.5
0.5
0.5
0.5
0.5
0.5
0.5
0.5
0.5
0.5
0.5
0.5
0.5

SCALARS name double
LOOKUP_TABLE default
15
2
11
1
3
0
10
4
8
13
6
7
14
5
9
12

SCALARS interaction_phenotype double
LOOKUP_TABLE default
0
0
0
0
0
0
0
0
0
0
0
0
0
0
0
0

SCALARS vessel_interaction double
LOOKUP_TABLE default
0
0
0
0
0
0
0
0
0
0
0
0
0
0
0
0

SCALARS is_follower double
LOOKUP_TABLE default
1
1
1
1
1
1
1
1
1
1
1
1
1
1
1
1

SCALARS polarised double
LOOKUP_TABLE default
0
0
0
0
0
0
0
0
0
0
0
0
0
0
0
0

