# vtk DataFile Version 2.0
Unstructured grid legacy vtk file with point scalar data
ASCII

DATASET UNSTRUCTURED_GRID
POINTS 81 double
320.044 355.319 385.909
325.49 357.014 391.889
323.483 358.741 400.171
335.267 339.752 393.025
334.226 355.563 380.685
333.436 348.29 393.34
330.083 364.022 393.378
335.452 358.864 388.366
332.809 356.396 396.22
341.731 334.264 395.071
342.487 335.769 403.928
343.922 345.36 383.794
342.208 338.295 388.021
341.242 345.643 391.569
340.752 342.017 398.869
344.663 345.422 405.514
344.638 342.876 413.735
337.195 346.308 371.62
340.814 351.248 378.044
338.494 351.277 386.525
340.29 353.318 394.469
336.986 348.531 401.281
342.282 354.792 402.659
337.27 351.925 408.755
344.116 351.609 412.178
336.238 360.309 402.94
345.049 362.905 402.093
341.108 359.394 409.461
349.691 334.43 390.988
355.008 329.098 399.381
349.317 339.67 380.866
348.954 342.715 389.95
347.712 339.195 397.555
352.179 343.468 403.159
355 337.838 396.72
349.19 338.097 408.345
353.006 341.367 416.062
354.642 348.361 391.9
347.098 347.781 397.55
349.715 352.245 404.258
351.361 346.694 411.176
354.93 349.352 407.078
348.515 351.532 413.104
348.695 348.452 419.139
348.721 361.586 389.575
347.846 356.82 396.155
351.621 364.021 397.158
355.139 357.125 399.539
348.957 359.597 407.914
355.376 356.04 408.901
351.415 356.111 415.7
357.409 333.546 391.063
358.87 327.544 392.549
364.063 332.767 404.274
355.754 335.666 403.979
357.93 332.231 410.905
355.826 339.362 386.668
363.603 337.099 388.876
360.92 343.242 393.364
357.282 340.713 392.324
365.036 340.674 385.827
360.968 343.179 401.189
357.891 341.691 408.977
360.68 338.052 416.164
359.942 343.448 423.134
360.522 346.759 386.43
355.715 349.144 399.778
363.261 351.947 399.49
360.7 349.858 406.661
363.515 346.76 413.487
363.315 355.221 412.306
356.581 349.311 417.833
355.92 356.71 390.912
363.635 361.849 389.557
359.458 364.55 400.79
361.273 358.252 404.644
361.176 360.39 395.781
358.237 362.077 413.639
373.07 344.488 408.642
367.157 345.909 393.541
371.117 346.974 400.433

POINT_DATA 81
SCALARS radius double
LOOKUP_TABLE default
5.0053
5.0053
5.04636
5.09809
5.02621
5.09809
5.09809
5.02621
5.03728
5.07271
5.07271
5.0053
5.0053
5.04636
5.02621
5.07271
5.07271
5.0053
5.07271
5.04636
5.08666
5.02621
5.0053
5.03728
4.12621
5.03728
5.0053
5.03728
5.07271
5.04636
5.07271
5.02621
5.04636
5.09809
5.07271
5.07271
5.02621
5.02621
5.03728
5.0053
5.0053
4.28931
4.12621
5.07271
5.04636
5.0053
5.0053
5.07271
4.97271
4.97271
5.09809
4.4053
4.5053
5.07271
5.0053
5.07271
5.02621
4.07271
4.12621
4.22621
4.07271
5.0053
5.07271
5.07271
5.08931
5.07271
5.02621
5.02621
4.38931
5.06002
5.04636
5.06002
5.04636
5.07271
4.52621
5.07271
4.52621
5.09809
5.07271
5.07271
5.07271

SCALARS status double
LOOKUP_TABLE default
1
1
1
1
1
1
1
1
1
1
1
1
1
1
1
1
1
1
1
1
1
1
1
1
1
1
1
1
1
1
1
1
1
1
1
2
1
1
1
1
1
1
1
1
1
1
1
1
1
1
1
1
1
1
1
1
1
1
1
1
1
1
1
1
1
1
1
1
1
1
1
1
1
1
1
1
1
1
1
1
1

SCALARS concentration double
LOOKUP_TABLE default
25.1202
26.4555
26.2885
25.9947
28.9535
27.2227
29.0321
29.5831
28.771
25.9312
26.8275
29.2952
27.0275
29.195
27.9563
29.8503
29.1075
27.7743
29.6336
29.014
30.522
28.322
31.8922
29.3534
31.2605
30.724
34.6594
32.2282
27.7145
27.191
29.2848
30.2348
29.0173
31.6649
31.1037
28.663
30.8661
33.9601
31.5643
32.708
33.0238
35.5302
31.2605
31.8178
35.0282
34.0581
37.3014
37.0598
36.1232
36.1232
34.9696
28.9485
28.9485
30.1937
29.6577
28.7539
30.2358
31.8658
31.1037
31.1037
31.8658
33.93
32.5753
31.8049
33.5426
34.7832
33.9601
36.0077
35.5302
35.4265
38.7581
34.2455
36.5676
42.5854
40.4896
37.3876
40.4896
39.5134
36.5528
35.0796
37.0127

SCALARS fibres double
LOOKUP_TABLE default
0
0
0
0
0
0
0
0
0
0
0
0
0
0
0
0
0
0
0
0
0
0
0
0
0
0
0
0
0
0
0
0
0
0
0
0
0
0
0
0
0
0
0
0
0
0
0
0
0
0
0
0
0
0
0
0
0
0
0
0
0
0
0
0
0
0
0
0
0
0
0
0
0
0
0
0
0
0
0
0
0

SCALARS phenot double
LOOKUP_TABLE default
7
7
7
7
7
7
7
7
7
7
7
7
7
7
7
7
7
7
7
7
7
7
7
7
7
7
7
7
7
7
7
7
7
7
7
7
7
7
7
7
7
7
7
7
7
7
7
7
7
7
7
7
7
7
7
7
7
7
7
7
7
7
7
7
7
7
7
7
7
7
7
7
7
7
7
7
7
7
7
7
7

SCALARS cont_pheno double
LOOKUP_TABLE default
0.5
0.5
0.5
0.5
0.5
0.5
0.5
0.5
0.5
0.5
0.5
0.5
0.5
0.5
0.5
0.5
0.5
0.5
0.5
0.5
0.5
0.5
0.5
0.5
0.5
0.5
0.5
0.5
0.5
0.5
0.5
0.5
0.5
0.5
0.5
0.45
0.5
0.5
0.5
0.5
0.5
0.5
0.5
0.5
0.5
0.5
0.5
0.5
0.5
0.5
0.5
0.55
0.55
0.5
0.5
0.5
0.5
0.5
0.5
0.5
0.5
0.5
0.5
0.5
0.5
0.5
0.5
0.5
0.5
0.5
0.5
0.5
0.5
0.5
0.5
0.5
0.5
0.5
0.5
0.5
0.5

SCALARS name double
LOOKUP_TABLE default
69
35
49
16
32
8
17
60
4
28
46
27
52
13
34
19
58
22
26
14
1
66
67
9
56
11
38
54
59
23
47
40
3
10
12
36
21
39
5
2
31
77
79
30
41
7
63
33
20
74
6
37
75
53
0
45
70
44
72
78
80
48
15
61
42
64
73
68
18
57
24
62
25
51
65
71
76
50
55
29
43

SCALARS interaction_phenotype double
LOOKUP_TABLE default
0
0
0
0
0
0
0
0
0
0
0
0
0
0
0
0
0
0
0
0
0
0
0
0
0
0
0
0
0
0
0
0
0
0
0
0
0
0
0
0
0
0
0
0
0
0
0
0
0
0
0
0
0
0
0
0
0
0
0
0
0
0
0
0
0
0
0
0
0
0
0
0
0
0
0
0
0
0
0
0
0

SCALARS vessel_interaction double
LOOKUP_TABLE default
0
0
0
0
0
0
0
0
0
0
0
0
0
0
0
0
0
0
0
0
0
0
0
0
0
0
0
0
0
0
0
0
0
0
0
0
0
0
0
0
0
0
0
0
0
0
0
0
0
0
0
0
0
0
0
0
0
0
0
0
0
0
0
0
0
0
0
0
0
0
0
0
0
0
0
0
0
0
0
0
0

SCALARS is_follower double
LOOKUP_TABLE default
1
1
1
1
1
1
1
1
1
1
1
1
1
1
1
1
1
1
1
1
1
1
1
1
1
1
1
1
1
1
1
1
1
1
1
1
1
1
1
1
1
1
1
1
1
1
1
1
1
1
1
1
1
1
1
1
1
1
1
1
1
1
1
1
1
1
1
1
1
1
1
1
1
1
1
1
1
1
1
1
1

SCALARS polarised double
LOOKUP_TABLE default
0
0
0
0
0
0
0
0
0
0
0
0
0
0
0
0
0
0
0
0
0
0
0
0
0
0
0
0
0
0
0
0
0
0
0
0
0
0
0
0
0
0
0
0
0
0
0
0
0
0
0
0
0
0
0
0
0
0
0
0
0
0
0
0
0
0
0
0
0
0
0
0
0
0
0
0
0
0
0
0
0

