# vtk DataFile Version 2.0
Unstructured grid legacy vtk file with point scalar data
ASCII

DATASET UNSTRUCTURED_GRID
POINTS 14 double
341.715 342.691 391.476
337.746 349.805 389.782
339.743 349.175 397.909
338.423 355.467 403.623
341.647 348.734 406.95
336.307 355.942 395.177
346.233 343.984 401.473
354.58 343.89 403.753
352.701 340.037 396.204
352.222 348.238 396.732
350.31 351.128 404.652
351.059 356.636 397.885
351.981 356.623 411.127
355.875 335.058 402.252

POINT_DATA 14
SCALARS radius double
LOOKUP_TABLE default
5.03728
5.03728
5.08666
5.08666
5.03728
5.08666
5.03728
5.03728
5.09809
5.03728
5.03728
5.03728
5.03728
5.09809

SCALARS status double
LOOKUP_TABLE default
1
1
1
1
1
1
1
1
1
1
1
1
1
1

SCALARS concentration double
LOOKUP_TABLE default
28.9524
28.9524
28.946
29.7958
29.9528
29.7958
30.1282
30.3382
30.3382
32.4076
33.2695
34.6548
35.0423
30.3382

SCALARS fibres double
LOOKUP_TABLE default
0
0
0
0
0
0
0
0
0
0
0
0
0
0

SCALARS phenot double
LOOKUP_TABLE default
7
7
7
7
7
7
7
7
7
7
7
7
7
7

SCALARS cont_pheno double
LOOKUP_TABLE default
0.5
0.5
0.5
0.5
0.5
0.5
0.5
0.5
0.5
0.5
0.5
0.5
0.5
0.5

SCALARS name double
LOOKUP_TABLE default
13
8
1
11
9
4
3
10
12
5
2
7
6
0

SCALARS interaction_phenotype double
LOOKUP_TABLE default
0
0
0
0
0
0
0
0
0
0
0
0
0
0

SCALARS vessel_interaction double
LOOKUP_TABLE default
0
0
0
0
0
0
0
0
0
0
0
0
0
0

SCALARS is_follower double
LOOKUP_TABLE default
1
1
1
1
1
1
1
1
1
1
1
1
1
1

SCALARS polarised double
LOOKUP_TABLE default
0
0
0
0
0
0
0
0
0
0
0
0
0
0

