# vtk DataFile Version 2.0
Unstructured grid legacy vtk file with point scalar data
ASCII

DATASET UNSTRUCTURED_GRID
POINTS 24 double
329.01 358.759 394.143
343.593 344.023 389.233
338.196 339.93 394.878
345.374 344.784 404.233
338.279 348.251 384.882
338.808 348.485 377.738
336.048 348.334 391.909
341.306 349.405 398.636
339.501 349.049 408.087
337.43 356.348 395.331
338.747 356.608 403.898
346.144 341.896 396.623
352.977 342.378 402.935
354.078 338.602 395.445
349.684 345.638 410.971
350.403 349.042 398.508
346.078 352.882 404.27
354.286 351.085 405.79
351.112 357.771 397.532
353.257 357.447 412.837
350.49 359.376 405.321
356.195 335.504 403.3
356.602 331.037 398.184
361.543 345.521 404.145

POINT_DATA 24
SCALARS radius double
LOOKUP_TABLE default
5.03728
5.09809
5.09809
5.04636
4.54636
4.64636
5.09809
5.08666
5.03728
5.03728
5.08666
5.09809
5.09809
5.09809
5.04636
5.03728
5.04636
5.09809
5.03728
5.03728
5.04636
4.34636
4.44636
5.09809

SCALARS status double
LOOKUP_TABLE default
1
1
1
1
1
1
1
1
1
1
1
1
1
1
1
1
1
1
1
1
1
1
1
1

SCALARS concentration double
LOOKUP_TABLE default
29.4697
28.6272
27.2543
29.5891
28.2624
28.2624
28.0427
29.5077
29.6259
29.4697
30.3324
29.5891
31.2776
30.0396
29.5891
32.82
32.7708
32.7708
35.0795
35.4301
32.7708
29.51
29.51
34.2747

SCALARS fibres double
LOOKUP_TABLE default
0
0
0
0
0
0
0
0
0
0
0
0
0
0
0
0
0
0
0
0
0
0
0
0

SCALARS phenot double
LOOKUP_TABLE default
7
7
7
7
7
7
7
7
7
7
7
7
7
7
7
7
7
7
7
7
7
7
7
7

SCALARS cont_pheno double
LOOKUP_TABLE default
0.5
0.5
0.5
0.5
0.5
0.5
0.5
0.5
0.5
0.5
0.5
0.5
0.5
0.5
0.5
0.5
0.5
0.5
0.5
0.5
0.5
0.5
0.5
0.5

SCALARS name double
LOOKUP_TABLE default
17
13
16
19
14
22
8
1
9
4
11
3
10
12
21
5
2
18
7
6
20
0
23
15

SCALARS interaction_phenotype double
LOOKUP_TABLE default
0
0
0
0
0
0
0
0
0
0
0
0
0
0
0
0
0
0
0
0
0
0
0
0

SCALARS vessel_interaction double
LOOKUP_TABLE default
0
0
0
0
0
0
0
0
0
0
0
0
0
0
0
0
0
0
0
0
0
0
0
0

SCALARS is_follower double
LOOKUP_TABLE default
1
1
1
1
1
1
1
1
1
1
1
1
1
1
1
1
1
1
1
1
1
1
1
1

SCALARS polarised double
LOOKUP_TABLE default
0
0
0
0
0
0
0
0
0
0
0
0
0
0
0
0
0
0
0
0
0
0
0
0

