# vtk DataFile Version 2.0
Unstructured grid legacy vtk file with point scalar data
ASCII

DATASET UNSTRUCTURED_GRID
POINTS 9 double
92.365 103.005 96.6342
90.5676 97.2583 106.944
95.3877 103.99 104.546
96.6326 96.549 101.151
103.487 101.544 100.535
99.5219 104.185 113.117
101.646 99.0153 107.706
95.9156 105.979 89.232
107.668 100.233 94.1648

POINT_DATA 9
SCALARS radius double
LOOKUP_TABLE default
5.03728
5.03728
5.03728
5.08666
5.02287
4.99809
4.99809
5.08666
5.02287

SCALARS status double
LOOKUP_TABLE default
1
1
1
1
1
1
1
1
1

SCALARS concentration double
LOOKUP_TABLE default
38.9575
38.9575
38.9575
38.9575
38.9575
38.9575
38.9575
38.9575
38.9575

SCALARS fibres double
LOOKUP_TABLE default
0
0
0
0
0
0
0
0
0

SCALARS phenot double
LOOKUP_TABLE default
7
7
7
7
7
7
7
7
7

SCALARS cont_pheno double
LOOKUP_TABLE default
0.5
0.5
0.5
0.5
0.5
0.5
0.5
0.5
0.5

SCALARS name double
LOOKUP_TABLE default
2
1
7
3
0
4
8
6
5

SCALARS interaction_phenotype double
LOOKUP_TABLE default
0
0
0
0
0
0
0
0
0

SCALARS vessel_interaction double
LOOKUP_TABLE default
0
0
0
0
0
0
0
0
0

SCALARS is_follower double
LOOKUP_TABLE default
1
1
1
1
1
1
1
1
1

SCALARS polarised double
LOOKUP_TABLE default
0
0
0
0
0
0
0
0
0

