# vtk DataFile Version 2.0
Unstructured grid legacy vtk file with point scalar data
ASCII

DATASET UNSTRUCTURED_GRID
POINTS 179 double
65.195 113.221 102.244
65.3993 114.531 93.4278
67.66 101.52 102.727
71.5767 109.21 91.8
72.4974 108.872 100.535
70.2245 106.547 111.94
75.7036 115.587 96.8754
84.4645 91.0506 101.585
84.3252 93.5748 110.319
79.608 93.4304 116.322
82.7777 91.7842 123.652
77.511 99.8021 90.3315
82.9089 97.4691 96.2625
83.5629 101.95 103.354
76.3046 104.449 106.492
78.0511 96.4545 106.132
85.1335 102.642 111.862
77.2582 103.161 114.91
83.6682 99.5277 119.128
81.7882 99.655 126.095
78.8489 112.712 81.8032
83.7388 110.491 89.0108
80.4563 111.033 103.167
82.2968 106.486 96.2648
77.2368 111.533 111.706
85.3351 110.582 109.748
82.8867 113.525 118.199
84.5621 114.442 96.4574
81.5689 119.407 112.443
83.5586 123.383 105.501
94.0602 85.5731 94.9713
90.4808 93.2728 95.6444
94.2373 89.1689 102.627
87.8653 86.5953 108.131
89.9352 95.1223 105.009
93.619 90.3211 111.036
88.1753 93.1918 118.116
88.4795 98.3641 89.2938
89.5586 101.74 96.7937
92.0746 101.074 103.076
90.9223 97.3772 111.951
92.214 103.944 107.441
94.7438 100.93 110.228
91.9703 100.946 117.552
89.7635 101.253 125.158
90.8474 103.666 133.076
89.7975 109.845 67.976
89.5248 112.507 76.0218
89.9607 106.347 81.7528
91.7446 105.946 90.5798
90.7017 112.151 86.6675
88.5927 108.059 102.369
93.3139 110.071 96.7381
92.5933 108.294 113.054
86.832 106.682 119.383
92.434 112.44 120.343
85.7614 115.763 82.5008
89.8717 121.408 78.588
88.0929 119.057 89.8238
94.9645 123.364 90.9521
91.9071 118.995 97.0995
87.7472 115.949 103.503
90.0286 120.736 109.271
89.4732 117.016 115.016
91.6313 127.464 96.7085
102.501 82.5224 102.177
103.94 84.7559 109.649
99.469 93.0349 84.556
101.51 85.926 89.1514
101.415 93.0773 92.1729
101.505 88.0632 97.4606
103.133 91.3568 104.791
100.487 91.3415 112.802
99.9649 91.7709 123.619
100.717 100.431 78.9958
95.9208 101.772 85.1499
96.5515 98.742 91.779
103.965 99.4675 87.4747
98.0229 95.3011 99.2339
103.175 101.321 102.87
97.1024 103.129 98.0717
97.8461 96.9545 107.116
97.8261 102.908 112.757
101.231 97.8047 117.032
97.8629 104.07 121.445
99.4954 102.238 129.561
104.719 113.685 65.4698
95.3188 106.292 75.293
98.0614 110.687 69.459
103.512 109.103 76.0152
101.657 108.066 83.7972
96.2851 114.301 82.8438
99.5971 107.62 91.4374
101.974 108.727 99.2534
95.6078 114.189 102.165
104.562 109.851 106.682
96.805 107.24 105.514
101.927 106.702 115.172
103.88 108.384 124.972
96.6902 117.19 75.7135
103.508 116.469 83.2118
98.3986 122.838 83.8733
95.3436 114.913 90.9242
103.975 120.843 90.4848
95.7526 122.01 104.444
101.063 115.159 95.7865
102.386 116.895 104.635
96.3692 114.526 110.08
104.114 114.74 113.479
103.509 122.369 110.395
97.683 119.489 116.441
98.3796 115.34 124.759
103.343 121.603 125.025
102.197 122.903 131.914
99.5913 126.879 98.983
104.132 129.176 105.551
96.67 126.916 111.074
106.527 94.2536 79.2159
108.175 91.8787 87.3157
109.143 86.6826 94.0667
109.991 86.7592 102.772
109.985 91.8573 109.78
105.659 89.0625 117.544
108.575 102.84 78.2764
108.351 95.3814 95.0827
108.446 104.685 86.0819
113.21 99.006 89.0665
105.776 103.528 94.5338
109.814 95.8588 102.794
113.049 101.815 96.9269
105.45 99.0642 109.985
113.659 99.9382 109.099
106.535 101.651 120.964
113.603 95.6846 123.027
109.5 96.1871 116.059
106.94 98.1618 128.3
114.019 103.071 126.667
109.192 105.881 70.6611
109.881 111.164 82.1211
113.284 107.744 91.0962
106.581 112.733 89.9067
108.484 113.059 98.4422
113.81 105.745 102.415
109.098 106.643 112.197
112.42 110.635 105.903
111.15 109.12 120.987
107.68 106.109 131.603
114.137 111.465 131.873
107.675 116.563 76.1431
110.656 119.158 85.1556
111.6 121.038 95.0554
105.072 120.723 98.8833
109.883 117.153 105.278
111.782 114.628 112.602
109.86 121.654 116.154
106.687 115.828 121.743
105.783 114.726 130.52
105.905 126.397 84.3805
110.281 124.265 104.308
107.799 128.018 96.868
120.008 94.0414 90.2756
116.466 94.3975 97.6878
117.778 95.1151 114.352
118.465 97.4194 82.2811
119.364 100.4 102.566
114.427 102.204 117.725
115.829 108.628 73.7731
116.058 105.327 83.5154
120.938 107.157 78.1294
121.319 107.839 105.905
116.89 107.021 112.268
117.837 113.066 117.079
118.224 110.031 125.112
115.161 115.791 91.078
116.36 114.471 99.546
118.582 115.555 108.082
115.132 118.759 122.292
122.839 119.309 117.927
122.708 115.933 124.471

POINT_DATA 179
SCALARS radius double
LOOKUP_TABLE default
5.08931
5.08931
5.03939
5.02621
5.08931
5.08931
5.08931
5.0053
5.02621
5.02621
5.0053
5.07271
5.0053
5.07271
5.03939
5.0053
5.08931
5.08931
4.67271
4.77271
4.97271
5.04636
5.07271
5.02621
5.03939
5.08931
5.08931
5.04636
5.03939
5.0053
5.09809
5.0053
5.0053
5.0053
5.0053
5.02621
5.07271
5.04636
5.07271
4.29976
5.0053
4.29976
4.03939
5.08931
5.08931
5.08931
5.07271
5.0053
5.04636
5.0053
5.02272
5.0053
5.0053
5.02621
5.08931
5.07271
5.07271
5.07271
5.03939
5.03939
5.03939
5.0053
5.08931
5.08931
5.03939
5.02621
5.02621
5.09809
5.02621
5.0053
5.0053
5.09809
5.02621
5.0053
5.04636
5.04636
5.08931
5.09809
5.04636
5.08931
5.08931
5.03939
4.13939
5.03939
5.08931
5.08931
5.02621
5.0053
5.02621
5.0053
5.09809
5.02272
5.0053
5.0053
5.03939
5.08931
5.02621
5.08931
5.08931
5.07271
5.03939
5.09976
5.06831
5.07271
5.03939
5.09976
5.08931
5.08931
5.02621
5.07271
5.08931
5.08931
4.94768
4.94768
5.03939
5.07271
5.08931
5.04636
5.09809
5.08931
5.08931
5.02621
5.07271
5.02621
5.09809
5.02621
5.09809
5.09809
5.07271
5.09809
5.07271
5.08931
5.03939
5.07271
5.07271
5.0053
5.08931
5.07271
5.02621
5.04636
5.02621
5.07271
4.87271
5.09976
4.87271
5.08931
5.09976
5.09976
5.03939
5.03939
4.92621
5.08931
5.02621
5.02621
5.0053
5.08931
5.09976
5.09976
5.07271
5.02621
5.09809
5.03728
5.08931
5.07271
5.04636
5.03939
4.54636
5.07271
4.54636
5.04768
5.04768
5.03939
5.08931
4.92621
5.07271
5.0053
5.03939
4.83939
4.93939

SCALARS status double
LOOKUP_TABLE default
1
1
1
1
1
1
1
1
1
1
1
1
1
1
1
1
1
1
1
1
1
1
1
1
1
1
1
1
1
1
1
1
1
1
2
1
1
1
1
1
2
1
1
1
1
1
1
1
1
1
1
1
1
1
1
1
1
1
1
1
1
1
1
1
1
1
1
1
1
1
1
1
1
1
1
1
1
1
1
1
1
1
1
1
1
1
1
1
1
1
1
1
1
1
1
1
1
1
1
1
1
1
1
1
1
1
1
1
1
1
1
1
1
1
1
1
1
1
1
1
1
1
1
1
1
1
1
1
1
1
1
1
1
1
1
1
1
1
1
1
1
1
1
1
1
1
1
1
1
1
1
1
1
1
1
1
1
1
1
1
1
1
1
1
1
1
1
1
1
1
1
1
1
1
1
1
1
1
1

SCALARS concentration double
LOOKUP_TABLE default
34.4128
34.86
33.6655
35.1842
35.0611
34.7652
36.6135
35.6299
35.0071
35.0071
34.7393
35.0223
36.1108
37.2165
35.4016
35.6299
37.6381
35.3189
35.8637
35.8637
38.3969
37.9921
36.9403
36.4153
36.4044
38.0035
38.0035
38.2926
38.2658
39.0578
35.5803
36.3559
36.5692
35.1196
36.6892
38.1319
35.9857
36.5237
37.5849
38.2641
36.6892
38.2641
37.8005
37.8005
37.5292
37.9769
39.3081
38.7479
38.7088
38.9275
41.2466
38.09
38.9275
39.2791
37.4803
39.2266
38.3969
40.7712
40.0877
42.2639
40.4274
39.5437
40.0073
40.0073
42.2639
36.3726
36.7162
37.9313
36.8527
37.319
37.319
38.1804
38.1319
37.5493
39.1766
38.4807
38.5913
40.4254
37.4989
39.6258
38.5913
38.2641
37.8005
38.8638
38.9067
38.9213
41.7097
39.4678
41.7097
41.4161
40.8589
41.2466
40.834
40.834
40.3223
41.5773
39.2791
40.1952
41.4952
40.7712
42.8912
43.53
41.2466
44.128
41.7013
41.2466
43.3481
41.2339
42.7336
44.0719
42.5431
41.0738
43.1466
43.1466
43.6386
45.6046
42.9547
39.391
38.7939
37.889
37.9308
39.348
38.1336
41.4361
39.3469
41.4361
40.9289
41.6302
39.9137
41.6302
40.2067
41.7636
40.3782
40.1002
40.1002
39.973
42.2831
42.1442
43.5179
43.2416
43.255
43.5434
43.3296
42.5379
43.3296
42.2831
42.393
44.3397
44.2816
46.1285
46.3949
43.3481
44.8147
44.8147
45.7648
43.6875
43.1466
46.2952
46.6918
46.3146
40.9289
41.0433
41.2407
43.2328
43.081
42.0702
44.655
43.2328
44.655
44.0709
44.0709
45.4864
45.3167
46.3949
46.4606
46.8938
46.3666
48.8627
48.8627

SCALARS fibres double
LOOKUP_TABLE default
0
0
0
0
0
0
0
0
0
0
0
0
0
0
0
0
0
0
0
0
0
0
0
0
0
0
0
0
0
0
0
0
0
0
0
0
0
0
0
0
0
0
0
0
0
0
0
0
0
0
0
0
0
0
0
0
0
0
0
0
0
0
0
0
0
0
0
0
0
0
0
0
0
0
0
0
0
0
0
0
0
0
0
0
0
0
0
0
0
0
0
0
0
0
0
0
0
0
0
0
0
0
0
0
0
0
0
0
0
0
0
0
0
0
0
0
0
0
0
0
0
0
0
0
0
0
0
0
0
0
0
0
0
0
0
0
0
0
0
0
0
0
0
0
0
0
0
0
0
0
0
0
0
0
0
0
0
0
0
0
0
0
0
0
0
0
0
0
0
0
0
0
0
0
0
0
0
0
0

SCALARS phenot double
LOOKUP_TABLE default
7
7
7
7
7
7
7
7
7
7
7
7
7
7
7
7
7
7
7
7
7
7
7
7
7
7
7
7
7
7
7
7
7
7
7
7
7
7
7
7
7
7
7
7
7
7
7
7
7
7
7
7
7
7
7
7
7
7
7
7
7
7
7
7
7
7
7
7
7
7
7
7
7
7
7
7
7
7
7
7
7
7
7
7
7
7
7
7
7
7
7
7
7
7
7
7
7
7
7
7
7
7
7
7
7
7
7
7
7
7
7
7
7
7
7
7
7
7
7
7
7
7
7
7
7
7
7
7
7
7
7
7
7
7
7
7
7
7
7
7
7
7
7
7
7
7
7
7
7
7
7
7
7
7
7
7
7
7
7
7
7
7
7
7
7
7
7
7
7
7
7
7
7
7
7
7
7
7
7

SCALARS cont_pheno double
LOOKUP_TABLE default
0.5
0.5
0.5
0.5
0.5
0.5
0.5
0.5
0.5
0.5
0.5
0.5
0.5
0.5
0.5
0.5
0.5
0.5
0.5
0.5
0.5
0.5
0.5
0.5
0.5
0.5
0.5
0.5
0.5
0.5
0.5
0.5
0.5
0.5
0.45
0.5
0.5
0.5
0.5
0.5
0.45
0.5
0.5
0.5
0.5
0.5
0.5
0.5
0.5
0.5
0.5
0.5
0.5
0.5
0.5
0.5
0.5
0.5
0.5
0.5
0.5
0.5
0.5
0.5
0.5
0.5
0.5
0.5
0.5
0.5
0.5
0.5
0.5
0.5
0.5
0.5
0.5
0.5
0.5
0.5
0.5
0.5
0.5
0.5
0.5
0.5
0.5
0.5
0.5
0.5
0.5
0.5
0.5
0.5
0.5
0.5
0.5
0.5
0.5
0.5
0.5
0.5
0.5
0.5
0.5
0.5
0.5
0.5
0.5
0.5
0.5
0.5
0.5
0.5
0.5
0.5
0.5
0.5
0.5
0.5
0.5
0.5
0.5
0.5
0.5
0.5
0.5
0.5
0.5
0.5
0.5
0.5
0.5
0.5
0.5
0.5
0.5
0.5
0.5
0.5
0.5
0.5
0.5
0.5
0.5
0.5
0.5
0.5
0.5
0.5
0.5
0.5
0.5
0.5
0.5
0.5
0.5
0.5
0.5
0.5
0.5
0.5
0.5
0.5
0.5
0.5
0.5
0.5
0.5
0.5
0.5
0.5
0.5
0.5
0.5
0.5
0.55
0.5
0.5

SCALARS name double
LOOKUP_TABLE default
21
99
91
55
109
132
15
1
159
44
86
48
11
136
54
152
52
26
35
175
169
31
60
74
40
118
141
36
76
96
3
94
37
97
165
168
120
122
93
154
69
177
178
67
100
16
70
62
71
7
163
29
149
144
138
32
89
156
114
64
85
63
166
22
167
104
59
78
23
170
87
10
119
13
66
2
106
61
139
20
147
124
158
133
140
88
103
73
160
121
6
150
142
113
115
47
4
110
128
49
24
135
57
79
17
143
148
95
14
68
33
38
146
171
134
27
116
75
25
125
84
8
46
107
123
157
5
145
50
0
39
98
80
12
153
28
42
34
77
9
117
51
43
130
172
161
19
137
101
127
56
58
83
162
18
53
105
90
102
92
155
129
111
151
72
81
41
82
176
126
164
45
108
173
112
65
131
30
174

SCALARS interaction_phenotype double
LOOKUP_TABLE default
0
0
0
0
0
0
0
0
0
0
0
0
0
0
0
0
0
0
0
0
0
0
0
0
0
0
0
0
0
0
0
0
0
0
0
0
0
0
0
0
0
0
0
0
0
0
0
0
0
0
0
0
0
0
0
0
0
0
0
0
0
0
0
0
0
0
0
0
0
0
0
0
0
0
0
0
0
0
0
0
0
0
0
0
0
0
0
0
0
0
0
0
0
0
0
0
0
0
0
0
0
0
0
0
0
0
0
0
0
0
0
0
0
0
0
0
0
0
0
0
0
0
0
0
0
0
0
0
0
0
0
0
0
0
0
0
0
0
0
0
0
0
0
0
0
0
0
0
0
0
0
0
0
0
0
0
0
0
0
0
0
0
0
0
0
0
0
0
0
0
0
0
0
0
0
0
0
0
0

SCALARS vessel_interaction double
LOOKUP_TABLE default
0
0
0
0
0
0
0
0
0
0
0
0
0
0
0
0
0
0
0
0
0
0
0
0
0
0
0
0
0
0
0
0
0
0
0
0
0
0
0
0
0
0
0
0
0
0
0
0
0
0
0
0
0
0
0
0
0
0
0
0
0
0
0
0
0
0
0
0
0
0
0
0
0
0
0
0
0
0
0
0
0
0
0
0
0
0
0
0
0
0
0
0
0
0
0
0
0
0
0
0
0
0
0
0
0
0
0
0
0
0
0
0
0
0
0
0
0
0
0
0
0
0
0
0
0
0
0
0
0
0
0
0
0
0
0
0
0
0
0
0
0
0
0
0
0
0
0
0
0
0
0
0
0
0
0
0
0
0
0
0
0
0
0
0
0
0
0
0
0
0
0
0
0
0
0
0
0
0
0

SCALARS is_follower double
LOOKUP_TABLE default
1
1
1
1
1
1
1
1
1
1
1
1
1
1
1
1
1
1
1
1
1
1
1
1
1
1
1
1
1
1
1
1
1
1
1
1
1
1
1
1
1
1
1
1
1
1
1
1
1
1
1
1
1
1
1
1
1
1
1
1
1
1
1
1
1
1
1
1
1
1
1
1
1
1
1
1
1
1
1
1
1
1
1
1
1
1
1
1
1
1
1
1
1
1
1
1
1
1
1
1
1
1
1
1
1
1
1
1
1
1
1
1
1
1
1
1
1
1
1
1
1
1
1
1
1
1
1
1
1
1
1
1
1
1
1
1
1
1
1
1
1
1
1
1
1
1
1
1
1
1
1
1
1
1
1
1
1
1
1
1
1
1
1
1
1
1
1
1
1
1
1
1
1
1
1
1
1
1
1

SCALARS polarised double
LOOKUP_TABLE default
0
0
0
0
0
0
0
0
0
0
0
0
0
0
0
0
0
0
0
0
0
0
0
0
0
0
0
0
0
0
0
0
0
0
0
0
0
0
0
0
0
0
0
0
0
0
0
0
0
0
0
0
0
0
0
0
0
0
0
0
0
0
0
0
0
0
0
0
0
0
0
0
0
0
0
0
0
0
0
0
0
0
0
0
0
0
0
0
0
0
0
0
0
0
0
0
0
0
0
0
0
0
0
0
0
0
0
0
0
0
0
0
0
0
0
0
0
0
0
0
0
0
0
0
0
0
0
0
0
0
0
0
0
0
0
0
0
0
0
0
0
0
0
0
0
0
0
0
0
0
0
0
0
0
0
0
0
0
0
0
0
0
0
0
0
0
0
0
0
0
0
0
0
0
0
0
0
0
0

