# vtk DataFile Version 2.0
Unstructured grid legacy vtk file with point scalar data
ASCII

DATASET UNSTRUCTURED_GRID
POINTS 75 double
320.196 355.588 386.631
325.266 357.597 392.303
323.529 358.5 400.531
335.807 339.623 393.19
334.415 355.481 380.552
333.785 347.914 393.605
330.358 363.988 393.524
335.105 358.772 388.287
332.684 356.211 395.836
341.706 333.934 395.295
342.877 335.782 403.715
343.399 344.926 383.547
341.736 338.221 387.862
341.085 342.031 398.833
344.774 345.069 405.486
344.461 343.055 413.619
337.595 346.245 371.969
341.176 350.977 378.349
341.788 345.726 391.814
338.326 351.092 386.756
340.485 353.03 394.726
337.092 348.113 400.901
342.343 354.929 402.41
337.323 352.071 408.269
344.596 351.77 412.089
336.439 360.363 402.723
345.492 362.51 402.6
341.72 359.134 409.293
349.078 334.688 390.896
355.319 328.73 398.953
349.562 339.452 380.605
349.229 343.227 390.062
355.316 339.36 387.067
347.917 339.345 397.359
352.735 344.327 403.128
355.323 338.807 396.523
349.367 338.184 408.273
352.875 341.428 415.093
354.857 347.934 392.983
347.606 348.155 397.252
349.613 352.162 404.638
354.832 349.382 399.255
351.915 347.956 410.889
348.583 348.653 418.797
348.536 360.881 389.715
355.46 355.956 391.221
347.596 356.464 396.637
351.448 364.14 396.706
354.924 356.493 399.164
350.2 359.375 407.486
354.597 358.139 408.938
351.505 355.621 415.036
357.355 332.41 391.772
363.728 333.19 404.833
357.496 332.087 410.657
363.638 337.364 388.751
359.69 342.603 393.023
356.227 336.009 403.562
361.4 343.241 401.058
358.261 341.738 408.888
360.871 338.372 415.576
359.878 343.481 422.81
360.548 347.045 386.998
361.534 351.505 399.536
359.013 349.664 406.928
363.272 346.7 413.52
363.111 355.242 411.882
356.592 349.42 417.87
363.445 362.045 391.058
359.712 363.372 398.784
359.408 357.911 405.305
357.736 361.618 413.132
366.722 344.859 393.603
372.821 343.961 408.174
370.981 346.04 400.528

POINT_DATA 75
SCALARS radius double
LOOKUP_TABLE default
5.0053
5.0053
5.04636
5.09809
5.02621
5.09809
5.09809
5.02621
5.03728
5.07271
5.07271
5.0053
5.0053
5.02621
5.07271
5.07271
5.0053
5.07271
5.04636
5.04636
5.08666
5.02621
5.0053
5.03728
5.07271
5.03728
5.0053
5.03728
5.07271
5.04636
5.07271
5.02621
5.02621
5.04636
5.09809
5.07271
5.07271
5.02621
4.52621
5.03728
5.0053
4.52621
5.0053
5.07271
5.04636
5.04636
5.0053
5.0053
5.07271
4.07271
4.07271
5.09809
5.04636
5.07271
5.07271
5.0053
5.07271
5.0053
5.0053
5.07271
5.07271
5.08931
5.07271
5.02621
5.02621
5.06002
5.04636
5.06002
5.07271
5.07271
5.07271
5.09809
5.07271
5.07271
5.07271

SCALARS status double
LOOKUP_TABLE default
1
1
1
1
1
1
1
1
1
1
1
1
1
1
1
1
1
1
1
1
1
1
1
1
1
1
1
1
1
1
1
1
1
1
1
1
2
1
1
1
1
1
1
1
1
1
1
1
1
1
1
1
1
1
1
1
1
1
1
1
1
1
1
1
1
1
1
1
1
1
1
1
1
1
1

SCALARS concentration double
LOOKUP_TABLE default
25.1202
26.4555
26.2885
25.9947
28.9535
27.2227
29.0321
29.5831
28.771
25.9312
26.8275
29.2952
27.0275
27.9563
29.8503
29.1075
27.7743
29.6336
29.195
29.014
30.522
28.322
31.8922
29.3534
31.2605
30.724
34.6594
32.2282
27.7145
27.191
29.2848
30.2348
30.2358
29.0173
31.6649
31.1037
28.663
30.8661
33.9601
31.5643
32.708
33.9601
33.0238
31.8178
35.0282
36.5676
34.0581
37.3014
37.0598
36.1232
36.1232
34.9696
28.9485
30.1937
28.7539
31.8658
31.1037
29.6577
33.93
32.5753
31.8049
33.5426
34.7832
36.0077
35.5302
35.4265
38.7581
34.2455
42.5854
40.4896
37.3876
39.5134
35.0796
36.5528
37.0127

SCALARS fibres double
LOOKUP_TABLE default
0
0
0
0
0
0
0
0
0
0
0
0
0
0
0
0
0
0
0
0
0
0
0
0
0
0
0
0
0
0
0
0
0
0
0
0
0
0
0
0
0
0
0
0
0
0
0
0
0
0
0
0
0
0
0
0
0
0
0
0
0
0
0
0
0
0
0
0
0
0
0
0
0
0
0

SCALARS phenot double
LOOKUP_TABLE default
7
7
7
7
7
7
7
7
7
7
7
7
7
7
7
7
7
7
7
7
7
7
7
7
7
7
7
7
7
7
7
7
7
7
7
7
7
7
7
7
7
7
7
7
7
7
7
7
7
7
7
7
7
7
7
7
7
7
7
7
7
7
7
7
7
7
7
7
7
7
7
7
7
7
7

SCALARS cont_pheno double
LOOKUP_TABLE default
0.5
0.5
0.5
0.5
0.5
0.5
0.5
0.5
0.5
0.5
0.5
0.5
0.5
0.5
0.5
0.5
0.5
0.5
0.5
0.5
0.5
0.5
0.5
0.5
0.5
0.5
0.5
0.5
0.5
0.5
0.5
0.5
0.5
0.5
0.5
0.5
0.45
0.5
0.5
0.5
0.5
0.5
0.5
0.5
0.5
0.5
0.5
0.5
0.5
0.5
0.5
0.5
0.55
0.5
0.5
0.5
0.5
0.5
0.5
0.5
0.5
0.5
0.5
0.5
0.5
0.5
0.5
0.5
0.5
0.5
0.5
0.5
0.5
0.5
0.5

SCALARS name double
LOOKUP_TABLE default
69
35
49
16
32
8
17
60
4
28
46
27
52
34
19
58
22
26
13
14
1
66
67
9
56
11
38
54
59
23
47
40
70
3
10
12
36
21
39
5
2
73
31
30
41
25
7
63
33
20
74
6
37
53
45
44
72
0
48
15
61
42
64
68
18
57
24
62
51
65
71
50
29
55
43

SCALARS interaction_phenotype double
LOOKUP_TABLE default
0
0
0
0
0
0
0
0
0
0
0
0
0
0
0
0
0
0
0
0
0
0
0
0
0
0
0
0
0
0
0
0
0
0
0
0
0
0
0
0
0
0
0
0
0
0
0
0
0
0
0
0
0
0
0
0
0
0
0
0
0
0
0
0
0
0
0
0
0
0
0
0
0
0
0

SCALARS vessel_interaction double
LOOKUP_TABLE default
0
0
0
0
0
0
0
0
0
0
0
0
0
0
0
0
0
0
0
0
0
0
0
0
0
0
0
0
0
0
0
0
0
0
0
0
0
0
0
0
0
0
0
0
0
0
0
0
0
0
0
0
0
0
0
0
0
0
0
0
0
0
0
0
0
0
0
0
0
0
0
0
0
0
0

SCALARS is_follower double
LOOKUP_TABLE default
1
1
1
1
1
1
1
1
1
1
1
1
1
1
1
1
1
1
1
1
1
1
1
1
1
1
1
1
1
1
1
1
1
1
1
1
1
1
1
1
1
1
1
1
1
1
1
1
1
1
1
1
1
1
1
1
1
1
1
1
1
1
1
1
1
1
1
1
1
1
1
1
1
1
1

SCALARS polarised double
LOOKUP_TABLE default
0
0
0
0
0
0
0
0
0
0
0
0
0
0
0
0
0
0
0
0
0
0
0
0
0
0
0
0
0
0
0
0
0
0
0
0
0
0
0
0
0
0
0
0
0
0
0
0
0
0
0
0
0
0
0
0
0
0
0
0
0
0
0
0
0
0
0
0
0
0
0
0
0
0
0

