# vtk DataFile Version 2.0
Unstructured grid legacy vtk file with point scalar data
ASCII

DATASET UNSTRUCTURED_GRID
POINTS 12 double
339.001 349.411 390.273
339.789 348.336 399.09
336.585 355.385 395.411
338.221 355.261 403.484
341.619 349.238 407.363
355.445 335.35 400.005
346.503 343.871 402.352
355.066 343.37 403.884
352.553 347.606 397.172
349.757 351.148 404.702
350.425 355.812 397.296
351.79 356.379 411.006

POINT_DATA 12
SCALARS radius double
LOOKUP_TABLE default
5.08666
5.08666
5.08666
5.08666
5.03728
5.03728
5.03728
5.03728
5.03728
5.03728
5.03728
5.03728

SCALARS status double
LOOKUP_TABLE default
1
1
1
1
1
1
1
1
1
1
1
1

SCALARS concentration double
LOOKUP_TABLE default
28.9524
28.946
29.7958
29.7958
29.9528
30.3382
30.1282
30.3382
32.4076
33.2695
34.6548
35.0423

SCALARS fibres double
LOOKUP_TABLE default
0
0
0
0
0
0
0
0
0
0
0
0

SCALARS phenot double
LOOKUP_TABLE default
7
7
7
7
7
7
7
7
7
7
7
7

SCALARS cont_pheno double
LOOKUP_TABLE default
0.5
0.5
0.5
0.5
0.5
0.5
0.5
0.5
0.5
0.5
0.5
0.5

SCALARS name double
LOOKUP_TABLE default
8
1
4
11
9
0
3
10
5
2
7
6

SCALARS interaction_phenotype double
LOOKUP_TABLE default
0
0
0
0
0
0
0
0
0
0
0
0

SCALARS vessel_interaction double
LOOKUP_TABLE default
0
0
0
0
0
0
0
0
0
0
0
0

SCALARS is_follower double
LOOKUP_TABLE default
1
1
1
1
1
1
1
1
1
1
1
1

SCALARS polarised double
LOOKUP_TABLE default
0
0
0
0
0
0
0
0
0
0
0
0

