# vtk DataFile Version 2.0
Unstructured grid legacy vtk file with point scalar data
ASCII

DATASET UNSTRUCTURED_GRID
POINTS 15 double
93.6228 100.061 94.5088
89.4184 103.841 100.594
88.861 96.9144 109.39
98.0892 93.9036 97.6147
102.439 101.181 99.7866
95.3279 98.7822 104.347
98.8523 102.8 111.725
103.273 96.9476 107.282
95.7871 106.935 89.3692
96.6425 106.626 102.688
99.7866 110.31 107.72
108.045 100.056 94.0678
104.984 97.1609 115.374
105.113 109.227 100.233
106.228 108.925 109.294

POINT_DATA 15
SCALARS radius double
LOOKUP_TABLE default
5.09809
5.09809
5.03728
5.03728
5.08666
5.03728
5.09809
5.04636
5.08666
5.09809
4.64636
5.02287
5.04636
5.08666
4.54636

SCALARS status double
LOOKUP_TABLE default
1
1
1
1
1
1
1
1
1
1
1
1
1
1
1

SCALARS concentration double
LOOKUP_TABLE default
38.9575
38.9575
38.9575
38.9575
38.9575
38.9575
38.9575
38.9575
38.9575
38.9575
38.9575
38.9575
38.9575
38.9575
38.9575

SCALARS fibres double
LOOKUP_TABLE default
0
0
0
0
0
0
0
0
0
0
0
0
0
0
0

SCALARS phenot double
LOOKUP_TABLE default
7
7
7
7
7
7
7
7
7
7
7
7
7
7
7

SCALARS cont_pheno double
LOOKUP_TABLE default
0.5
0.5
0.5
0.5
0.5
0.5
0.5
0.5
0.5
0.5
0.5
0.5
0.5
0.5
0.5

SCALARS name double
LOOKUP_TABLE default
2
11
1
3
0
10
4
8
6
7
14
5
13
9
12

SCALARS interaction_phenotype double
LOOKUP_TABLE default
0
0
0
0
0
0
0
0
0
0
0
0
0
0
0

SCALARS vessel_interaction double
LOOKUP_TABLE default
0
0
0
0
0
0
0
0
0
0
0
0
0
0
0

SCALARS is_follower double
LOOKUP_TABLE default
1
1
1
1
1
1
1
1
1
1
1
1
1
1
1

SCALARS polarised double
LOOKUP_TABLE default
0
0
0
0
0
0
0
0
0
0
0
0
0
0
0

