# vtk DataFile Version 2.0
Unstructured grid legacy vtk file with point scalar data
ASCII

DATASET UNSTRUCTURED_GRID
POINTS 118 double
325.487 345.571 387.383
319.05 351.793 391.848
320.71 355.651 384.274
324.085 358.351 392.244
321.914 358.369 400.586
334.958 338.514 392.72
332.283 348.964 390.2
331.235 355.15 395.274
334.303 347.167 397.915
333.451 353.725 409.456
331.751 355.719 383.138
335.475 358.594 375.931
328.367 362.759 386.899
330.413 363.74 395.411
334.057 363.621 403.383
328.728 370.042 383.539
341.556 334.519 389.041
340.908 332.837 396.645
340.889 333.6 404.745
336.287 344.952 371.596
345.656 337.93 373.082
342.957 344.7 384.901
342.329 336.569 380.999
337.296 343.378 379.562
340.085 344.921 392.363
339.352 340.794 399.679
340.886 343.314 412.32
342.903 338.302 419.261
340.118 350.981 376.903
338.059 350.662 384.992
339.613 353.081 392.51
341.784 348.875 399.018
337.103 354.578 400.15
344.796 345.764 405.313
341.298 354.088 405.621
336.758 346.601 405.887
340.945 351.483 412.874
344.857 346.795 418.695
335.873 359.67 388.797
338.409 360.873 396.488
339.398 360.268 410.271
343.032 365.927 401.007
348.24 330.423 384.585
349.318 333.418 392.785
353.851 327.888 398.213
351.555 333.693 403.893
348.37 333.514 414.98
350.525 338.277 382.525
345.975 343.858 377.811
347.314 340.951 389.759
353.599 341.384 394.74
347.165 337.794 399.15
352.398 342.693 403.24
347.692 345.553 396.325
346.495 338.592 408.129
349.477 345.436 411.583
350.804 340.764 419.237
347.948 350.735 380.712
347.336 350.506 389.352
355.354 348.67 389.798
349.702 351.765 400.782
354.761 354.927 395.149
347.879 352.832 408.581
355.529 349.787 406.489
349.796 352.941 416.126
351.084 349.06 424.342
349.093 360.367 383.794
346.195 364.523 390.543
354.74 360.831 389.943
346.919 357.477 394.85
350.91 364.185 397.227
348.448 359.48 403.529
353.822 356.871 409.425
347.524 360.795 412.484
354.441 364.007 408.166
355.174 358.19 419.69
359.116 324.989 391.881
357.594 325.864 414.928
356.438 332.436 388.97
357.028 335.291 397.191
359.996 333.297 412.577
358.071 328.237 405.863
359.4 337.204 381
355.83 340.827 387.356
364.035 336.209 390.586
361.465 343.932 392.63
363.494 340.245 400.184
358.699 336.168 405.25
355.953 340.392 412.983
360.084 343.164 407.113
363.583 345.188 414.098
362.49 338.555 418.222
357.614 343.344 424.103
361.169 346.381 384.145
360.675 354.5 386.849
356.179 348.029 397.837
365.233 354.093 398.995
362.11 348.155 401.994
359.159 353.795 413.887
364.853 351.009 408.773
355.898 347.47 417.366
364.066 348.473 421.562
362.251 362.599 386.728
361.91 359.494 394.032
356.981 360.221 401.551
364.054 364.516 400.242
363.016 358.913 406.954
360.449 362.554 413.924
356.661 368.784 402.225
365.943 332.866 403.756
367.583 340.563 383.23
373.263 342.319 410.692
372.316 344.848 405.245
368.291 347.662 388.723
368.583 346.115 396.982
373.548 349.634 401.137
374.351 350.8 408.15
366.854 356.749 414.743

POINT_DATA 118
SCALARS radius double
LOOKUP_TABLE default
5.04636
5.07271
5.07271
5.0053
5.04636
5.09809
5.04636
5.03728
5.08931
5.03728
5.08931
5.08931
5.0053
5.04636
5.09809
5.0053
5.07271
5.07271
5.07271
5.0053
5.02621
5.02621
5.07271
5.02621
5.04636
5.02621
5.02621
5.02621
5.07271
5.04636
5.08666
5.04636
5.07271
5.07271
5.07271
5.08931
5.02621
5.02621
5.02621
5.09809
5.03728
5.0053
5.02621
5.02621
5.04636
5.02621
5.02621
5.08931
5.02621
5.08931
5.08931
5.04636
5.09809
5.04636
5.02621
5.0053
5.02621
5.07271
5.09809
5.02621
5.07271
5.02621
5.07271
5.03939
5.02621
5.02621
5.0053
5.0053
5.0053
5.0053
5.0053
5.02621
5.08931
5.02621
5.02621
5.09809
5.0053
5.02621
5.0053
5.07271
5.02621
5.07271
5.02621
5.08931
5.07271
5.02621
5.0053
5.02621
5.07271
5.09976
5.01614
5.07271
5.08931
5.07271
5.0053
5.02621
5.02621
5.09976
5.08931
5.08931
5.06002
5.01614
5.07271
5.02621
5.02621
5.08931
5.07271
5.09809
5.08931
5.07271
5.07271
4.32621
4.42621
5.02621
5.02621
4.52621
4.52621
5.04636

SCALARS status double
LOOKUP_TABLE default
1
1
1
1
1
1
1
1
1
1
1
1
1
1
1
1
1
1
1
1
1
1
1
1
1
1
1
1
1
1
1
1
1
1
1
1
1
1
1
1
1
1
1
1
1
1
2
1
1
1
1
1
1
1
2
1
1
1
1
1
1
1
1
1
1
1
1
1
1
1
1
1
1
1
1
1
1
1
1
1
1
1
1
1
1
1
1
1
1
1
1
1
1
1
1
1
1
1
1
1
1
1
1
1
1
1
1
1
1
1
1
1
1
1
1
1
1
1

SCALARS concentration double
LOOKUP_TABLE default
27.2227
25.1202
25.1202
26.4555
26.2885
25.9947
27.2227
28.771
28.322
29.3534
28.9535
28.9535
29.0321
29.0321
30.724
29.0321
27.0275
25.9312
26.8275
27.7743
29.2848
29.2952
27.0275
29.2952
29.195
27.9563
29.1075
29.1075
29.6336
29.014
30.522
31.5643
31.8922
29.8503
31.8922
28.322
31.2605
31.8178
29.5831
30.724
32.2282
34.6594
27.7145
27.7145
27.191
29.6577
28.663
30.2348
29.2848
30.2348
31.1037
29.0173
31.6649
31.5643
28.663
33.0238
30.8661
29.2952
31.5643
33.9601
32.708
37.0598
32.708
35.5302
31.2605
31.8178
35.0282
35.0282
36.5676
34.0581
37.3014
36.1232
36.1232
36.1232
36.1232
34.9696
28.9485
28.7539
28.9485
31.1037
28.7539
29.6577
30.2358
31.1037
31.8658
31.1037
33.93
29.6577
32.5753
35.5302
35.4265
31.8049
33.5426
34.7832
36.5676
33.9601
36.0077
35.5302
36.1232
35.5302
34.2455
35.4265
42.5854
40.4896
37.0598
40.4896
37.3876
39.5134
40.4896
30.1937
31.8658
36.5528
36.5528
35.0796
35.0796
37.0127
37.0127
38.7581

SCALARS fibres double
LOOKUP_TABLE default
0
0
0
0
0
0
0
0
0
0
0
0
0
0
0
0
0
0
0
0
0
0
0
0
0
0
0
0
0
0
0
0
0
0
0
0
0
0
0
0
0
0
0
0
0
0
0
0
0
0
0
0
0
0
0
0
0
0
0
0
0
0
0
0
0
0
0
0
0
0
0
0
0
0
0
0
0
0
0
0
0
0
0
0
0
0
0
0
0
0
0
0
0
0
0
0
0
0
0
0
0
0
0
0
0
0
0
0
0
0
0
0
0
0
0
0
0
0

SCALARS phenot double
LOOKUP_TABLE default
7
7
7
7
7
7
7
7
7
7
7
7
7
7
7
7
7
7
7
7
7
7
7
7
7
7
7
7
7
7
7
7
7
7
7
7
7
7
7
7
7
7
7
7
7
7
7
7
7
7
7
7
7
7
7
7
7
7
7
7
7
7
7
7
7
7
7
7
7
7
7
7
7
7
7
7
7
7
7
7
7
7
7
7
7
7
7
7
7
7
7
7
7
7
7
7
7
7
7
7
7
7
7
7
7
7
7
7
7
7
7
7
7
7
7
7
7
7

SCALARS cont_pheno double
LOOKUP_TABLE default
0.5
0.5
0.5
0.5
0.5
0.5
0.5
0.5
0.5
0.5
0.5
0.5
0.5
0.5
0.5
0.5
0.5
0.5
0.5
0.5
0.5
0.5
0.5
0.5
0.5
0.5
0.5
0.5
0.5
0.5
0.5
0.5
0.5
0.5
0.5
0.5
0.5
0.5
0.5
0.5
0.5
0.5
0.5
0.5
0.5
0.5
0.45
0.5
0.5
0.5
0.5
0.5
0.5
0.5
0.45
0.5
0.5
0.5
0.5
0.5
0.5
0.5
0.5
0.5
0.5
0.5
0.5
0.5
0.5
0.5
0.5
0.5
0.5
0.5
0.5
0.5
0.55
0.5
0.55
0.5
0.5
0.5
0.5
0.5
0.5
0.5
0.5
0.5
0.5
0.5
0.5
0.5
0.5
0.5
0.5
0.5
0.5
0.5
0.5
0.5
0.5
0.5
0.5
0.5
0.5
0.5
0.5
0.5
0.5
0.5
0.5
0.5
0.5
0.5
0.5
0.5
0.5
0.5

SCALARS name double
LOOKUP_TABLE default
107
105
69
35
49
16
8
4
91
9
32
95
83
17
11
104
52
28
46
22
47
27
106
111
13
34
58
89
26
14
1
5
115
19
67
66
56
85
60
86
54
38
87
59
23
0
82
96
112
40
109
3
10
108
36
31
21
81
90
39
2
100
93
77
79
30
102
41
25
7
63
92
114
20
84
6
75
113
37
12
45
94
70
78
44
72
48
101
15
99
57
61
42
64
98
73
68
110
74
18
62
103
51
76
33
97
71
50
65
53
80
55
117
29
88
43
116
24

SCALARS interaction_phenotype double
LOOKUP_TABLE default
0
0
0
0
0
0
0
0
0
0
0
0
0
0
0
0
0
0
0
0
0
0
0
0
0
0
0
0
0
0
0
0
0
0
0
0
0
0
0
0
0
0
0
0
0
0
0
0
0
0
0
0
0
0
0
0
0
0
0
0
0
0
0
0
0
0
0
0
0
0
0
0
0
0
0
0
0
0
0
0
0
0
0
0
0
0
0
0
0
0
0
0
0
0
0
0
0
0
0
0
0
0
0
0
0
0
0
0
0
0
0
0
0
0
0
0
0
0

SCALARS vessel_interaction double
LOOKUP_TABLE default
0
0
0
0
0
0
0
0
0
0
0
0
0
0
0
0
0
0
0
0
0
0
0
0
0
0
0
0
0
0
0
0
0
0
0
0
0
0
0
0
0
0
0
0
0
0
0
0
0
0
0
0
0
0
0
0
0
0
0
0
0
0
0
0
0
0
0
0
0
0
0
0
0
0
0
0
0
0
0
0
0
0
0
0
0
0
0
0
0
0
0
0
0
0
0
0
0
0
0
0
0
0
0
0
0
0
0
0
0
0
0
0
0
0
0
0
0
0

SCALARS is_follower double
LOOKUP_TABLE default
1
1
1
1
1
1
1
1
1
1
1
1
1
1
1
1
1
1
1
1
1
1
1
1
1
1
1
1
1
1
1
1
1
1
1
1
1
1
1
1
1
1
1
1
1
1
1
1
1
1
1
1
1
1
1
1
1
1
1
1
1
1
1
1
1
1
1
1
1
1
1
1
1
1
1
1
1
1
1
1
1
1
1
1
1
1
1
1
1
1
1
1
1
1
1
1
1
1
1
1
1
1
1
1
1
1
1
1
1
1
1
1
1
1
1
1
1
1

SCALARS polarised double
LOOKUP_TABLE default
0
0
0
0
0
0
0
0
0
0
0
0
0
0
0
0
0
0
0
0
0
0
0
0
0
0
0
0
0
0
0
0
0
0
0
0
0
0
0
0
0
0
0
0
0
0
0
0
0
0
0
0
0
0
0
0
0
0
0
0
0
0
0
0
0
0
0
0
0
0
0
0
0
0
0
0
0
0
0
0
0
0
0
0
0
0
0
0
0
0
0
0
0
0
0
0
0
0
0
0
0
0
0
0
0
0
0
0
0
0
0
0
0
0
0
0
0
0

