# vtk DataFile Version 2.0
Unstructured grid legacy vtk file with point scalar data
ASCII

DATASET UNSTRUCTURED_GRID
POINTS 7 double
344.721 345.407 403.67
340.664 347.355 396.311
340.06 355.785 397.912
354.662 341.768 400.593
351.38 348.635 397.411
348.547 353.218 403.661
351.996 355.635 411.255

POINT_DATA 7
SCALARS radius double
LOOKUP_TABLE default
5.08666
5.02287
5.02287
5.08666
5.08666
5.03728
5.03728

SCALARS status double
LOOKUP_TABLE default
1
1
1
1
1
1
1

SCALARS concentration double
LOOKUP_TABLE default
29.8337
28.9172
30.8212
31.0667
32.697
33.1504
35.1158

SCALARS fibres double
LOOKUP_TABLE default
0
0
0
0
0
0
0

SCALARS phenot double
LOOKUP_TABLE default
7
7
7
7
7
7
7

SCALARS cont_pheno double
LOOKUP_TABLE default
0.5
0.5
0.5
0.5
0.5
0.5
0.5

SCALARS name double
LOOKUP_TABLE default
3
1
4
0
5
2
6

SCALARS interaction_phenotype double
LOOKUP_TABLE default
0
0
0
0
0
0
0

SCALARS vessel_interaction double
LOOKUP_TABLE default
0
0
0
0
0
0
0

SCALARS is_follower double
LOOKUP_TABLE default
1
1
1
1
1
1
1

SCALARS polarised double
LOOKUP_TABLE default
0
0
0
0
0
0
0

