# vtk DataFile Version 2.0
Unstructured grid legacy vtk file with point scalar data
ASCII

DATASET UNSTRUCTURED_GRID
POINTS 9 double
338.969 349.966 391.153
340.092 347.772 399.28
337.589 355.687 397.206
346.282 345.003 404.295
354.976 338.947 401.201
352.47 346.705 397.891
348.987 353.137 403.583
351.77 354.867 395.636
351.702 355.81 411.405

POINT_DATA 9
SCALARS radius double
LOOKUP_TABLE default
5.08666
5.08666
5.02287
5.08666
5.08666
5.03728
5.03728
5.03728
5.03728

SCALARS status double
LOOKUP_TABLE default
1
1
1
1
1
1
1
1
1

SCALARS concentration double
LOOKUP_TABLE default
28.9172
28.9172
30.8212
29.8337
31.0667
32.697
33.1504
32.697
35.1158

SCALARS fibres double
LOOKUP_TABLE default
0
0
0
0
0
0
0
0
0

SCALARS phenot double
LOOKUP_TABLE default
7
7
7
7
7
7
7
7
7

SCALARS cont_pheno double
LOOKUP_TABLE default
0.5
0.5
0.5
0.5
0.5
0.5
0.5
0.5
0.5

SCALARS name double
LOOKUP_TABLE default
8
1
4
3
0
5
2
7
6

SCALARS interaction_phenotype double
LOOKUP_TABLE default
0
0
0
0
0
0
0
0
0

SCALARS vessel_interaction double
LOOKUP_TABLE default
0
0
0
0
0
0
0
0
0

SCALARS is_follower double
LOOKUP_TABLE default
1
1
1
1
1
1
1
1
1

SCALARS polarised double
LOOKUP_TABLE default
0
0
0
0
0
0
0
0
0

