# vtk DataFile Version 2.0
Unstructured grid legacy vtk file with point scalar data
ASCII

DATASET UNSTRUCTURED_GRID
POINTS 1119 double
47.6188 104.583 95.7265
47.5755 103.96 112.671
47.5517 107.487 105.351
56.5237 77.1225 104.701
51.425 90.3906 84.4869
49.3674 95.0106 110.5
55.8868 89.8798 106.823
56.6031 93.2778 114.407
55.444 102.57 84.0257
54.6362 96.2497 87.2908
54.8129 97.9207 100.005
53.9373 101.427 110.747
53.9639 101.376 118.348
49.7659 108.336 87.6138
55.1104 104.945 95.9423
55.3793 106.008 104.177
53.5302 113.374 107.638
57.0547 107.871 112.273
53.2896 109.69 119.732
52.0927 122.677 84.3362
53.3408 114.699 83.2079
54.5082 115.156 91.7817
51.4046 121.68 95.8827
56.3602 116.045 100.444
51.1753 119.216 113.282
55.9941 121.781 106.873
57.0976 117.758 118.978
51.4803 130.655 86.8418
65.718 84.9153 85.3845
62.0287 78.9924 91.8291
66.2269 85.7345 93.4209
58.0726 84.9198 96.2392
59.1657 83.4742 106.517
65.3084 79.0517 106.551
59.1102 89.1619 86.2189
65.2821 93.1821 89.7044
60.6574 92.4085 97.7486
61.4585 87.6024 102.441
63.6037 87.3981 112.009
63.6817 93.664 107.495
62.905 91.3088 119.595
65.0284 92.8291 127.606
57.9845 101.609 76.3848
61.1565 95.9872 81.7598
58.584 98.1189 93.2863
62.6313 101.162 87.8165
63.4776 98.4559 101.29
62.1242 103.658 107.553
57.6854 97.7207 106.794
61.071 99.7169 114.321
65.6552 99.2468 120.471
59.8041 104.757 122.953
64.5733 102.463 130.215
65.6257 101.661 125.443
66.2241 104.323 137.528
62.4913 111.985 60.5862
58.529 112.789 74.5332
59.2025 109.49 81.6916
64.3747 106.466 76.42
57.8671 107.949 89.6789
64.725 111.755 87.7884
65.2711 107.069 92.8665
60.3942 113.421 87.007
61.3144 104.911 99.2929
62.329 111.937 97.4255
61.4174 111.162 105.496
65.4527 105.444 114.592
61.097 111.391 118.249
57.5222 111.768 126.618
65.0752 110.379 126.266
62.2184 112.13 133.716
63.8938 114.539 68.4071
59.9501 122.439 66.9653
62.4189 121.118 74.6091
59.4848 118.738 84.8135
64.3175 115.639 79.9098
63.5183 123.673 82.4006
62.9869 118.508 91.2883
58.5717 122.324 95.5
64.2456 119.757 99.3227
60.7644 116.21 111.089
66.5805 121.538 106.759
63.2744 122.939 115.291
65.8417 118.088 121.345
62.3051 118.367 127.944
63.5037 131.685 84.5793
58.1376 125.998 88.6851
65.737 126.999 90.4296
59.6069 127.2 100.699
65.3017 133.041 102.293
61.7262 128.042 108.051
64.4631 135.524 109.937
75.0622 75.2989 96.1237
73.9485 72.7504 107.577
75.212 81.8329 75.0559
71.1758 79.7041 81.8028
71.1296 80.2228 90.4003
66.7242 79.3193 98.4419
73.0859 80.7455 100.041
75.1981 80.5773 105.572
71.2507 84.3636 110.895
74.2506 82.6176 118.032
73.5115 86.7348 68.0728
73.05 91.729 74.5467
67.6309 86.2832 77.4198
69.2168 92.9851 81.7957
75.328 87.2396 81.0785
72.0399 88.6854 88.1596
72.4176 93.0302 93.8809
74.0262 86.5631 98.27
68.3096 85.9214 103.887
67.4016 91.0799 97.9598
69.8375 94.4267 102.794
76.193 88.8716 105.286
70.6878 92.0368 110.226
71.1642 91.8532 117.923
70.0772 86.9324 123.805
72.4322 90.8617 130.583
66.868 92.214 136.202
72.8695 98.0785 69.1919
72.4737 104.734 72.6938
67.8238 100.656 81.9619
74.7808 98.5761 78.4471
75.9515 103.674 85.3389
72.5674 97.0405 87.8241
69.8264 104.027 89.2504
67.1753 99.0153 95.1136
75.2576 101.038 93.9445
73.719 100.93 101.401
68.7187 100.058 108.425
75.1027 104.768 107.903
75.8462 96.6241 107.203
71.3534 99.4668 115.79
71.4209 103.804 125.939
71.9699 96.1459 124.608
72.7694 100.736 132.823
75.0064 113.375 60.9974
73.2229 106.412 65.1631
69.8266 112.754 75.1296
69.0234 110.329 83.1133
71.8804 105.726 79.2332
71.9646 110.603 89.0115
68.3019 105.55 101.915
72.5691 107.988 96.568
68.0592 113.757 102.068
74.458 112.594 103.695
68.8267 108.5 108.699
76.0549 112.402 110.165
73.6811 107.369 115.252
69.3002 108.445 120.985
67.8866 113.774 115.675
69.7883 108.628 132.158
75.4943 111.563 138.991
67.8709 113.524 138.523
69.873 107.951 143.82
72.0222 114.579 67.8492
68.8217 121.652 68.3709
70.2401 121.214 76.4502
75.1151 116.022 79.8599
69.034 117.809 86.3394
70.6607 122.05 93.0674
68.3459 114.712 94.5589
74.6973 115.75 92.9034
72.6661 120.331 100.339
68.6914 115.717 109.27
74.3767 120.529 108.901
74.4822 115.21 116.031
71.2076 121.525 115.962
71.9889 114.407 125.528
72.4066 121.897 126.977
74.2726 116.848 133.091
67.4125 120.315 133.777
72.6729 117.513 143.49
67.559 128.727 73.1048
74.6814 131.931 72.155
70.6515 126.209 82.6964
73.7353 129.575 95.2043
71.2743 132.46 87.5639
75.7886 124.077 86.5775
75.7489 127.845 90.6473
68.0492 126.918 98.411
72.3383 127.761 104.388
68.9518 127.703 111.408
73.3848 130.189 116.847
68.3439 126.255 121.581
71.9588 129.573 128.535
75.1248 124.557 134.876
67.2666 134.263 93.9634
72.5564 135.294 99.909
72.7327 135.603 110.238
75.3055 141.138 105.206
73.7961 134.471 122.502
85.0612 71.8988 84.241
81.1092 74.1464 90.9284
78.1239 69.6327 101.7
84.3275 68.5389 96.7231
84.2949 75.5191 106.621
80.1767 74.0471 111.255
76.8194 76.0065 116.59
79.1277 74.9952 129.51
81.3735 85.3881 70.3439
82.3233 78.4178 80.3473
81.9316 85.5857 77.8989
77.9763 81.1882 86.0736
81.6885 81.1642 94.0072
81.2933 83.8869 101.901
81.8633 76.2808 99.6483
79.6349 82.935 110.307
84.8145 79.3115 114.491
82.5606 76.3059 121.806
81.7733 84.786 118.596
77.849 82.2796 125.257
79.7325 84.4621 137.993
80.9906 86.9532 62.6907
79.1522 93.2681 67.9075
80.4557 93.432 77.0142
82.9803 87.021 85.3289
78.6833 93.7634 84.3244
77.0763 85.824 92.0542
78.9452 92.9198 91.3748
84.5032 88.5058 94.3012
83.1513 93.3273 101.381
76.8185 94.3952 99.2181
77.8598 89.9025 113.898
83.7957 89.0194 107.795
80.8837 94.6616 108.646
84.7405 95.0824 112.885
77.945 90.1384 123.254
84.4501 92.3677 119.229
79.6692 87.5785 130.743
83.6417 94.6522 127.38
78.3071 95.1753 133.068
78.4361 94.206 140.866
85.1406 92.1037 134.976
84.5639 88.854 141.172
84.6677 97.5762 51.6638
81.8282 103.955 57.1056
83.0085 101.213 64.9632
80.5966 103.898 73.858
84.5839 97.316 71.5427
82.1068 100.853 80.9896
81.4912 99.7829 88.8053
84.1363 96.1445 94.3446
81.2097 101.104 98.0343
82.7875 100.698 105.138
78.9199 101.161 112.922
78.0316 96.3965 118.993
84.2876 100.561 118.182
76.8955 103.228 119.883
78.9811 100.669 127.194
83.4211 104.752 124.015
84.245 99.7513 135
77.7313 110.223 53.7836
83.1241 113.81 59.3308
80.4614 108.023 61.8026
80.6496 107.85 67.6968
77.7984 112.01 73.2063
78.2117 109.128 80.674
84.7615 109.114 79.3787
78.5724 108.071 91.0757
85.5365 109.728 87.7484
78.8168 106.782 101.542
82.6915 109.67 96.6191
77.179 113.228 97.3894
82.1443 112.979 104.469
82.7023 107.255 108.699
82.1288 113.733 112.757
77.0671 112.773 120.253
80.9011 108.019 115.673
84.1971 108.612 119.437
77.0828 108.309 123.959
76.7505 109.615 130.986
82.3967 113.077 126.693
83.5661 107.207 131.873
78.2264 104.869 137.329
77.2007 120.628 72.5187
82.6822 115.802 67.4322
85.5137 122.64 69.2671
83.3069 119.557 73.6313
83.3734 116.438 76.5921
79.6503 121.633 80.9185
83.2712 115.66 83.5688
82.1091 116.162 91.8694
76.7739 116.601 86.9639
78.0931 122.421 93.5608
84.9291 123.118 95.2024
79.9621 118.419 99.3093
83.0523 121.823 108.985
79.5566 118.634 105.961
79.377 118.414 122.561
79.5254 119.751 115.686
80.6605 121.184 129.445
81.6776 115.275 134.949
82.1368 122.186 139.863
84.3676 124.933 59.5329
80.2187 127.673 68.225
82.5169 125.493 74.8201
77.1721 129.396 79.1697
83.3121 127.131 80.5627
83.6609 125.887 88.0163
79.0108 132.166 86.2417
81.6125 130.624 93.6679
79.5037 125.449 101.335
78.7619 132.016 99.7976
78.688 126.038 113.083
78.4662 130.421 107.647
84.2567 131.28 110.776
80.5282 131.818 119.533
77.3223 125.726 122.359
79.9513 128.709 129.526
80.7277 130.495 136.787
80.6011 129.175 144.42
79.7279 135.607 65.9993
82.4804 133.543 73.9472
82.5069 137.844 81.4619
81.3425 138.434 90.6407
82.8967 138.682 98.7765
85.1625 133.673 103.741
79.4929 136.915 105.253
77.0138 142.331 112.795
83.8193 139.187 115.171
84.9408 141.234 128.543
83.107 143.248 106.691
83.2664 147.326 114.545
92.0715 63.8942 98.5435
89.314 72.7404 76.7216
93.0569 68.9994 83.7592
90.5601 68.7275 92.0167
93.6087 75.2094 90.1997
88.0365 76.1203 94.9405
90.5997 71.5028 100.63
88.501 68.3694 107.758
91.3013 75.8123 109.119
86.8108 72.3548 114.956
92.7128 68.89 118.036
91.358 70.7076 124.843
87.4279 81.6854 65.88
86.9803 80.4719 73.7535
93.5258 76.8969 69.6886
94.3733 80.4232 76.729
91.5176 77.1905 83.2453
85.9977 79.6839 87.4011
89.2638 83.2903 93.3824
87.6566 78.9495 101.999
91.7498 82.2682 101.789
94.9427 77.4235 99.6028
87.822 82.8524 107.845
92.5675 81.645 114.316
89.5027 80.8602 121.724
90.8394 77.5217 129.342
87.2284 84.5392 132.812
93.2614 84.9851 128.351
87.6711 90.7145 66.2688
92.8512 85.792 71.0387
94.6587 92.7263 75.1634
86.8945 90.3376 73.6225
91.8078 94.5706 70.8332
89.7435 86.8236 79.158
93.5786 93.5658 84.5421
91.5167 85.8859 86.0747
86.4962 92.9559 87.7262
94.2458 90.5302 91.7271
87.9667 87.591 101.256
90.0747 93.3214 96.3593
93.8539 86.5387 97.9063
91.9684 89.0352 107.237
87.7829 87.802 113.912
91.6217 91.5231 119.146
94.23 92.0758 125.454
86.0867 87.6496 124.821
91.144 94.6777 130.802
91.6798 86.3048 139.76
85.7988 90.1279 147.999
95.0075 101.17 59.9668
88.0866 99.8954 58.2323
90.9071 99.4007 66.3681
88.3498 102.641 74.6697
88.5732 95.9733 79.6259
87.9097 103.926 83.5895
94.6132 101.702 80.3922
86.0222 104.221 92.9031
94.2646 101.589 86.1587
90.2986 98.7649 90.6957
88.5968 100.085 98.7959
93.0138 103.152 95.7652
89.6235 102.465 104.176
89.0607 95.4407 105.388
87.3181 102.628 111.719
91.0018 95.9473 113.193
92.4107 101.497 108.228
94.6789 103.712 114.12
88.9545 97.9225 122.708
94.615 100.276 126.394
88.0394 101.94 128.58
92.9365 101.981 133.954
94.0678 102.602 141.754
91.7242 95.4654 138.486
89.0106 109.901 55.8352
88.008 106.886 61.5701
92.237 112.729 65.8872
85.8253 109.884 71.7688
88.67 106.077 67.505
92.0313 108.684 76.9735
91.1893 108.715 94.9261
92.7502 109.968 86.9648
88.0306 113.976 93.1658
87.5633 107.564 101.975
93.2542 114.061 100.267
88.6497 113.381 107.181
88.77 109.59 113.255
94.5564 108.021 106.955
90.1853 105.203 119.971
87.0083 114.148 119.407
94.9579 110.912 117.405
89.0491 109.782 125.896
94.981 107.946 130.326
[...]
POINT_DATA 1119
SCALARS radius double
LOOKUP_TABLE default
5.04768
5.07354
5.07354
5.02687
4.78983
5.00635
5.04768
5.09976
5.02687
4.68983
5.09976
5.02687
5.02687
5.04768
5.07354
5.04768
5.00635
5.00635
5.02687
5.06831
5.04768
5.04768
5.00635
5.09976
5.00635
5.09976
5.00635
5.06831
5.07354
5.00635
5.07354
5.07354
4.38983
5.03939
5.07354
5.04768
5.09976
4.38983
5.08931
5.09976
5.09976
5.03939
5.07354
5.07354
5.00635
5.00635
5.00635
5.07354
5.02687
5.02687
5.02687
5.04768
4.07354
4.17354
5.00635
5.02687
5.07354
5.00635
5.00635
5.09976
4.17354
5.07354
4.17354
5.07354
5.07354
5.00635
5.03939
5.09976
5.07354
5.00635
5.07354
5.02687
5.03939
5.07354
5.04768
5.07354
5.09976
5.04768
5.00635
5.07354
5.09976
5.03939
5.00635
5.00635
5.02687
5.09976
5.09976
5.09976
5.04768
5.03939
5.08931
5.03939
5.02621
5.02621
5.03939
5.03939
5.08931
5.08931
4.62621
4.62621
5.08931
5.08931
5.08931
5.02621
5.03939
5.07271
5.03939
5.00635
5.00635
5.03939
5.03939
5.00635
5.09976
5.03939
5.09976
5.09976
5.08931
5.02621
5.03939
5.07354
5.08983
5.02687
5.00635
5.09976
5.09976
5.00635
5.00635
5.00635
5.07354
5.07354
5.04768
5.02621
5.03939
5.09976
5.08931
5.09976
5.03939
5.09976
5.08931
5.04636
5.08983
5.03939
5.07354
5.07354
5.07354
5.09976
5.09976
5.09976
5.09976
5.03939
5.07354
5.07354
5.02687
5.08983
5.02687
5.08931
5.03939
5.09976
5.09976
5.03939
5.03939
5.03939
4.72687
5.08931
5.07354
5.08931
4.60635
5.00635
5.04768
5.02687
5.09976
5.08983
5.02687
5.08931
5.03939
5.09976
4.29976
5.03939
5.09976
4.29976
5.03939
5.03939
5.07354
5.07354
5.00635
5.00635
5.09976
5.03939
5.02621
5.08931
4.68983
5.00635
5.09976
5.08931
5.08931
5.08931
5.02621
4.68931
4.78931
5.02621
5.03939
5.02621
5.03939
5.02621
5.03939
5.07271
5.02621
5.03939
5.09976
5.02621
5.03939
5.0053
5.02687
5.03939
5.08931
5.08931
5.02621
5.04768
5.03939
5.02621
5.03939
5.08931
5.07354
5.03939
5.03939
4.80635
4.80635
5.09976
5.02621
5.09976
5.09976
5.08931
5.08931
5.08983
4.9398
5.08931
5.02621
5.08931
5.02621
5.02621
5.0053
5.03939
5.03939
5.03939
5.09976
5.04768
5.04768
5.00635
5.09976
5.03939
5.04768
5.09976
5.03939
5.03939
4.54768
4.54768
5.08931
5.0053
5.08931
5.02621
5.09802
5.07271
5.08931
4.82687
5.09976
5.09976
5.07354
4.60635
4.29976
4.29976
5.09976
5.09976
5.09976
5.07271
5.03939
5.08931
5.03939
5.04768
3.99802
4.09802
5.03719
5.08654
5.02621
5.03939
5.04768
5.04768
5.08931
4.64768
4.64768
5.07354
5.07354
5.00635
5.04768
5.04768
4.79976
5.09976
4.34768
5.03939
4.34768
5.04768
5.02621
5.04768
5.0053
5.02621
5.04768
5.04768
4.87354
5.04768
5.00635
5.00635
5.07354
5.07354
5.08931
5.08931
5.08931
5.09976
5.03939
4.60635
4.58983
5.02687
5.09976
5.07354
5.07354
5.00635
5.07354
5.09976
5.0053
5.0053
5.02621
5.02621
5.04768
5.04768
5.07271
5.09976
5.04768
4.94768
5.09976
5.09976
5.04768
5.04768
5.09976
5.04636
5.0053
4.28931
4.28931
5.02621
5.09976
5.09976
5.09976
5.03939
5.03939
5.07271
5.02621
5.0053
4.63939
5.02621
4.63939
5.04684
5.07271
5.04684
5.02621
5.03939
5.02621
5.03939
5.07271
5.07271
5.02621
5.08931
5.09976
5.08931
5.07354
5.07354
5.0398
5.00635
5.08931
5.07271
5.07271
5.08931
5.09802
4.67271
5.08931
5.02621
5.08931
5.08931
4.18931
4.29976
5.08931
5.00635
5.02621
4.39976
5.09976
5.02621
5.03939
5.03939
5.08983
5.08983
5.07354
5.08931
4.42621
5.03939
5.08931
4.42621
5.09802
5.08931
5.07271
4.8398
5.08931
5.0398
5.02621
5.08931
5.0398
5.03939
5.08931
5.09976
5.03939
5.07354
5.00635
5.08931
5.02687
5.04768
5.08157
5.08157
4.74768
5.02621
5.08931
5.03719
5.04768
5.03719
4.1463
5.08654
4.1463
5.08983
4.9398
5.02621
5.08983
5.00009
5.00009
5.07354
5.07354
5.07354
4.17354
5.03939
5.04768
5.09976
5.00635
5.02687
5.09976
5.09976
5.02687
5.07354
5.01647
5.03939
5.03939
4.79976
5.04768
5.03719
5.03719
5.09976
5.08654
5.00635
5.00635
5.04768
5.00635
5.04768
4.87354
5.04768
5.09976
5.03939
5.09976
5.00635
4.90635
5.02687
5.01647
5.00635
5.00635
5.07354
5.04768
5.09976
5.04768
5.00635
5.03939
5.04768
4.70635
5.07354
5.00635
5.00635
5.07354
5.00635
5.09976
5.04768
5.07354
5.07354
5.02687
5.02687
5.00635
5.00635
5.04768
5.07271
5.07354
5.00635
5.00635
5.03939
5.00635
4.08931
5.02621
5.00635
5.03939
4.08931
5.00635
5.00635
5.04768
5.09976
5.07354
5.07271
4.12621
5.04768
4.33939
4.43939
4.12621
5.03939
5.09976
5.09976
5.04684
4.80635
5.09809
5.04684
5.03939
5.07354
5.03939
5.07271
4.79976
5.0053
5.08931
5.09809
5.02621
5.08931
5.04768
4.84768
5.04768
5.02621
5.08931
5.03939
4.90635
5.08931
5.08931
5.04768
5.03939
5.03939
5.09976
5.00635
5.07354
5.04768
4.79976
5.07354
5.04768
5.00635
5.02621
5.02621
4.77271
4.22687
4.22687
5.00635
5.08931
5.02621
5.04768
5.09976
5.03939
4.18931
5.04768
5.04768
5.04768
5.03939
5.02621
4.09976
4.09976
4.99976
4.99976
5.03939
4.87354
4.84768
5.04768
5.04768
5.08931
5.0053
5.09976
5.03939
5.0053
5.02621
5.09976
5.02687
5.02621
5.07271
5.03939
5.0398
5.04768
5.04768
5.03939
5.09976
5.09976
5.03939
5.02687
5.02687
5.07354
5.00635
5.09976
5.00635
5.09976
5.09802
5.09976
5.04768
5.09976
5.0463
5.0463
5.07271
5.03939
4.39976
5.08983
5.07354
4.27354
5.04768
5.04768
4.37354
4.37354
5.01647
5.0398
5.00009
5.00009
5.09976
5.09976
5.09976
5.08931
5.0463
5.09802
5.0463
5.02687
5.08983
5.07354
5.02687
4.60635
4.60635
5.07354
5.09976
5.07354
5.08931
5.04768
5.04768
5.00635
5.04768
5.02687
5.04768
4.90635
5.02687
5.08931
5.07354
5.08983
5.04768
5.07354
5.02687
5.02687
5.02687
4.58983
5.04768
4.68983
5.04768
5.02687
5.03939
5.08931
5.04768
5.03939
4.07354
5.09976
5.04768
5.09976
5.09976
5.04768
5.04768
5.04768
4.80635
4.82687
5.00635
4.92687
5.04768
5.04768
5.04768
5.04768
5.09976
5.07271
5.04636
5.09976
5.02621
4.80635
4.84768
5.00635
5.04768
5.08931
5.04768
4.40635
5.09976
5.09976
5.03939
5.09976
4.42621
4.52621
5.04768
5.02621
5.02621
5.0053
5.02621
5.0053
5.09976
5.04768
5.09976
5.09976
5.04768
5.09976
5.09976
5.08931
5.08931
5.04768
5.09976
5.00635
4.34768
4.68931
4.78931
5.09976
5.0053
5.02621
5.0053
5.07354
5.07354
5.09976
5.04636
5.03939
5.03939
5.04768
5.08931
5.08931
5.00635
5.03939
5.04768
5.03939
5.04768
5.09976
5.04768
5.07354
5.00635
5.07354
4.97354
5.04768
5.02621
5.04768
5.02621
5.02687
5.08931
5.02687
5.04768
5.04768
5.03939
5.0053
5.0053
5.07271
5.07271
5.03939
4.54768
5.09976
4.54768
5.09976
5.09976
5.09976
5.09976
5.09976
5.07354
5.09976
5.08931
5.02621
5.04768
5.04768
5.09976
5.09976
4.39976
5.02621
5.03939
5.09976
5.07354
5.03939
5.07354
5.03939
5.03939
4.73939
4.73939
5.09976
5.04768
5.07354
5.00635
5.07354
5.00635
5.00635
5.00635
4.67354
5.00635
5.02687
5.03939
5.03939
5.03939
5.09976
5.08931
5.04768
5.00635
5.08931
5.08931
5.04768
5.08931
5.08931
5.00635
5.08931
5.08983
5.0398
5.08983
5.00635
4.67354
5.03939
5.08931
5.09976
5.07354
5.09976
5.04768
5.09976
5.09976
5.07354
5.04768
5.04768
5.09976
5.03939
5.00635
5.08983
5.04768
4.22687
4.30635
4.22687
4.30635
4.07354
5.09976
5.03939
5.09976
5.09976
5.09976
5.00635
5.09976
4.92687
5.04768
5.02687
4.40635
5.03939
5.07271
5.04636
5.07271
5.07271
5.02621
5.00635
4.82621
5.00635
5.00635
5.02621
5.00635
5.00635
5.02621
4.28931
5.02621
4.2053
5.03939
4.2053
5.09976
5.07271
5.09976
4.92621
5.02621
5.09976
5.09976
5.02621
5.04768
4.40635
5.03939
5.00635
4.34768
5.08931
5.07271
5.0053
5.02621
5.07271
5.02621
5.02621
5.09976
5.07271
5.04768
5.04768
5.00635
5.02621
5.04768
5.03939
5.09976
5.09976
5.09976
4.60635
4.60635
5.08931
4.14768
4.14768
5.00635
5.04636
5.03939
5.07354
5.07354
5.07271
5.00635
5.04768
5.08931
5.03939
5.09976
5.08931
5.09976
5.04768
5.09976
5.04768
5.07354
5.00635
5.07354
5.07354
5.02687
5.02687
5.00635
5.03939
5.09976
4.49976
4.49976
5.09976
5.03939
5.03939
5.09976
5.09976
5.03939
5.09976
5.03939
5.07354
5.03939
5.04768
5.07354
5.07354
5.0398
5.08983
5.04768
5.02687
5.09976
5.04768
5.04768
5.04768
5.00635
5.03939
5.04768
5.04768
5.09976
5.04768
5.07271
5.00635
5.00635
5.07354
5.08983
5.00635
5.04768
5.07354
5.03939
5.04768
5.04768
5.03939
5.09976
5.02621
5.08931
5.07354
5.02621
5.07354
5.00635
5.04768
5.04768
5.00635
5.07271
5.04768
5.04768
5.04768
5.09976
5.09976
5.04768
4.28931
5.08931
5.07271
5.04636
4.77271
5.03728
4.78931
5.07271
5.09976
4.40635
4.99976
4.99976
5.07271
4.94768
5.03939
5.03939
5.08931
5.02621
5.02621
5.02621
4.77271
5.04636
5.08931
5.03939
5.04768
5.03939
5.09976
5.09976
4.94768
5.04768
5.03939
5.04768
5.03939
5.00635
5.03939
5.02687
5.03939
5.09976
5.07354
5.09976
5.07354
5.00635
5.00635
5.08931
5.07354
5.02687
5.07354
5.02621
5.09976
4.99976
5.09976
4.99976
5.03939
5.03939
5.09976
5.03939
5.04768
5.04768
5.02687
5.02687
5.02687
5.07354
5.08931
5.03939
5.04768
5.09976
5.08931
5.09976
5.09976
5.00635
5.04768
5.09976
5.07354
5.07354
5.03939
5.08931
5.03939
5.0053
5.0053
5.02621
5.04768
4.78931
4.47271
5.02621
5.02621
5.02621
5.08931
5.04768
5.04768
4.47271
5.08983
5.08983
5.07354
5.04768
5.04768
5.02621
5.09976
5.02621
5.03939
5.03939
5.08931
4.57354
5.03939
4.67354
5.00635
5.04768
5.00635
5.08931
5.04768
5.02621
5.08931
5.09976
5.03939
5.09976
5.03939
5.03939
5.00635
5.00635
5.08931
5.00635
5.04768
5.02687
5.04768
5.04768
5.03939
5.04768
5.00635
5.09976
5.00635

SCALARS status double
LOOKUP_TABLE default
1
1
1
1
1
1
1
1
1
1
1
1
1
1
1
1
1
1
1
1
1
1
1
1
1
1
1
1
1
1
1
1
1
1
1
1
1
1
1
1
1
1
1
1
1
1
1
1
1
1
1
1
1
1
1
1
1
1
1
1
1
1
1
1
1
1
1
1
1
1
1
1
1
1
1
1
1
1
1
1
1
1
1
1
1
1
1
1
1
1
1
1
1
1
1
1
1
1
1
1
1
1
1
1
1
1
1
1
1
1
1
1
1
1
1
1
1
1
1
1
1
1
1
1
1
1
1
1
1
1
1
1
1
1
1
1
1
1
1
1
1
1
1
1
1
1
1
1
1
1
1
1
1
1
1
1
1
1
1
1
1
1
1
1
1
1
1
1
1
1
1
1
1
1
1
1
1
1
1
1
1
1
1
1
1
1
1
1
1
1
1
1
1
1
1
1
1
1
1
1
1
1
1
1
1
2
1
1
1
1
1
1
1
1
1
1
1
1
1
1
1
1
1
1
1
1
1
1
2
1
1
1
1
1
1
1
1
1
1
1
1
1
1
1
1
1
1
1
1
1
1
1
1
1
1
1
1
1
1
1
1
1
1
1
1
1
1
1
1
1
1
1
1
1
1
1
1
1
1
1
1
1
1
1
1
1
1
1
1
1
1
1
1
1
1
1
1
1
1
1
1
1
1
1
1
1
1
1
1
1
1
1
1
1
1
1
1
1
1
1
1
1
1
1
1
1
1
1
1
1
1
1
1
1
1
1
1
1
1
1
1
1
1
1
1
1
1
1
1
1
1
1
1
1
1
1
1
1
1
1
1
1
1
1
1
2
2
2
1
1
1
1
1
1
1
1
1
1
1
1
1
1
1
1
1
1
1
1
1
1
1
2
1
1
1
1
1
1
1
1
1
1
1
1
1
1
1
1
1
1
1
1
1
1
1
1
1
1
1
1
1
1
1
1
1
1
1
1
1
1
1
1
1
1
1
1
1
1
1
1
1
1
1
1
1
1
1
1
1
1
1
1
1
1
1
1
1
1
1
1
1
1
1
1
1
1
1
1
1
1
1
1
1
1
1
1
1
1
1
1
1
1
1
1
1
1
1
1
1
1
1
1
1
1
1
1
1
1
1
1
1
1
1
1
1
1
1
1
1
1
1
1
1
1
1
1
1
1
1
1
1
1
1
1
1
1
1
1
1
1
1
1
1
1
1
1
1
1
1
1
1
1
1
1
2
1
1
1
1
1
1
1
1
1
1
1
1
1
1
1
1
1
1
1
1
1
1
1
1
1
1
1
1
1
1
1
1
1
1
1
1
1
1
1
1
1
1
1
1
1
1
1
1
1
1
1
1
1
1
1
1
1
1
1
1
1
1
1
1
1
1
1
1
1
1
1
1
1
1
1
1
1
1
1
1
1
1
1
1
1
1
1
1
1
1
1
1
1
1
1
1
1
1
1
1
1
1
1
1
1
1
1
1
1
1
1
1
1
1
1
1
1
1
1
1
1
1
1
1
1
1
1
1
1
1
1
1
1
1
1
1
1
1
1
1
1
1
1
1
2
1
1
1
1
1
1
1
1
1
1
1
1
1
1
1
1
1
1
1
1
1
1
1
1
1
1
1
1
1
1
1
1
1
1
1
1
1
1
1
1
1
1
1
1
1
2
1
1
1
1
1
1
1
1
1
1
1
1
1
1
1
1
1
1
1
1
1
1
1
1
1
1
1
1
1
1
1
1
1
1
1
1
1
1
1
1
1
1
1
1
1
1
1
1
1
1
1
1
1
1
1
1
1
1
1
1
1
1
1
1
1
1
1
1
1
1
1
1
2
1
1
1
1
1
1
1
1
1
1
1
1
1
1
1
1
1
1
1
1
1
1
1
1
1
1
1
1
1
1
1
1
1
1
1
1
1
1
1
1
1
1
1
1
2
1
2
2
2
1
2
1
1
1
1
1
1
1
1
1
1
1
1
2
1
2
1
1
1
1
1
1
1
1
1
1
1
1
1
1
1
1
1
1
1
1
1
1
1
1
1
1
1
1
1
1
1
1
1
1
1
1
1
1
1
1
1
1
1
1
1
1
1
1
1
1
1
1
1
1
1
1
1
1
1
1
1
1
2
1
1
1
1
1
1
1
1
1
1
1
1
1
1
1
1
1
1
1
1
1
1
1
1
1
1
1
1
1
1
1
1
1
1
1
1
1
1
1
1
1
1
1
1
1
2
1
1
1
1
1
1
1
1
2
1
1
1
1
1
1
1
1
1
1
1
1
1
1
1
1
1
1
1
1
1
1
1
1
1
1
1
1
1
1
1
1
1
1
1
1
1
1
1
1
1
1
1
1
1
1
1
1
1
1
1
1
1
1
1
1
1
1
1
1
1
1
1
1
1
1
1
1
1
1
1
1
1
1
1
1
1
1
1
1
1
1
1
1
1
1
1
1
1
1
1
1
1
1
1
1
1
1
1
1
1
1
1
1
1
1
1
1
1
1
1
1
1
1
1
1
1
1
1
1
1
1
1
1
1
1

SCALARS concentration double
LOOKUP_TABLE default
32.8446
33.4291
33.4291
32.612
33.9291
32.9087
32.612
33.3082
33.9291
33.9291
32.612
33.4291
32.9087
34.1697
34.0179
32.8446
33.6073
33.6073
32.9087
34.9717
34.9717
34.1697
34.9691
34.1697
33.6073
34.9691
33.6073
34.9717
35.1523
32.612
35.1523
32.612
32.612
33.4007
33.1036
33.1036
33.4226
32.612
34.4396
33.4226
33.763
33.7775
33.9291
33.1036
33.1036
33.9291
34.0179
33.4291
33.4291
32.9087
32.9087
33.7799
34.4642
34.4642
34.4642
34.6675
34.6675
34.6679
34.6679
33.7484
34.9775
35.5668
34.9775
34.0179
35.5668
34.0179
34.4396
34.2388
35.2434
35.2434
35.2434
34.6675
35.9913
34.6675
34.9717
34.6675
34.9717
35.1284
34.9691
35.5668
34.6969
37.2323
35.614
35.614
36.2372
36.5419
34.9717
36.5419
34.9691
37.2323
36.3462
37.2323
33.5425
32.6677
34.6178
34.6178
33.6242
33.6242
33.5425
33.5425
33.4007
33.2933
35.283
34.4307
34.6178
34.0619
34.6178
35.1523
35.1523
34.2988
33.4007
35.1523
34.2988
34.2988
34.2988
34.9349
33.2933
34.7987
33.7775
35.1523
35.1523
35.1523
35.1523
35.5935
35.5935
34.9775
34.0179
35.2716
34.5934
34.5934
36.0164
34.6823
34.4396
36.3177
33.7775
35.0262
38.8967
38.3723
35.8849
36.1604
35.1523
36.4676
34.5934
35.2716
35.5668
36.5478
34.5579
36.5478
36.9426
35.1659
35.6107
36.2372
36.2372
36.2372
36.2372
35.8849
35.9913
36.087
37.6362
36.087
36.4676
36.4676
35.2716
37.2323
35.6107
38.2405
36.4633
35.6107
36.4633
36.2372
36.5744
36.2372
36.2372
35.9913
38.7636
36.087
38.0067
38.0067
37.6362
38.0067
38.0067
37.2323
37.4014
37.4014
37.4014
37.8086
37.7576
38.0067
38.3639
37.2323
41.4825
37.8086
35.4429
33.8212
32.6677
32.6677
33.7131
33.7131
33.7131
34.4168
34.6133
34.6133
34.6133
35.3925
33.8212
35.1583
33.5425
34.4775
34.7732
34.4168
34.8039
34.0945
36.0156
34.6133
35.283
36.2442
35.3925
35.1523
34.2988
36.1152
33.8212
35.5986
34.5934
34.8039
34.4775
36.3177
36.3177
34.9349
36.8449
35.3843
35.3843
34.7987
34.7987
36.0156
36.0156
38.1787
37.5341
38.3723
36.2442
37.7228
36.9163
37.4365
37.0313
37.4365
37.2596
36.0164
36.3177
37.6953
36.9426
35.3843
37.6953
36.6013
38.8967
38.3723
38.3723
38.3723
36.5934
36.6396
38.296
37.0272
38.7324
36.6034
38.8131
35.2716
36.5478
36.5478
38.6285
36.4633
36.9426
36.9426
38.293
36.5744
38.293
38.3769
36.2315
37.825
39.5195
40.7995
38.1566
38.1566
38.1566
38.2776
38.5959
36.4676
39.0753
39.913
37.7837
40.4975
40.4975
38.6285
38.6285
37.6042
37.7576
37.7576
40.7102
40.064
40.064
38.7636
40.064
39.7146
39.3271
39.5876
39.0765
38.3639
38.3741
40.3598
40.0398
40.3598
37.6042
37.6042
37.6042
37.6042
40.7995
40.8431
40.8431
41.8676
40.8188
41.4825
41.4825
41.4825
40.3598
42.7765
41.4825
41.4825
33.9599
35.4429
34.9807
34.9807
35.4338
34.599
33.3008
33.3008
35.376
33.8597
33.8597
33.8597
34.6133
34.6133
35.4429
35.4429
35.4429
34.9807
35.2979
34.599
34.599
35.4338
34.7732
35.5206
35.5206
34.8215
35.9302
36.5977
36.7575
35.8026
37.5345
37.7228
37.5345
35.9579
37.7354
35.9579
36.1152
37.1317
37.0313
37.0313
36.2814
35.8167
35.8043
35.8043
37.4496
35.9351
37.0377
36.8798
36.0156
40.3874
38.1787
38.2274
37.7228
36.2442
38.7324
39.5722
38.9141
37.7354
37.4365
37.0313
39.5569
39.299
35.5986
37.6953
35.9879
39.299
38.7963
36.8449
38.3058
38.3058
39.2406
39.2406
36.8798
38.8967
38.2274
40.146
38.296
38.2274
40.2683
38.9141
39.5569
40.7547
38.8131
41.3101
38.8131
38.7014
41.3101
39.3836
38.7014
39.3836
39.3836
39.2406
40.2498
37.9846
39.2406
40.2498
42.9066
42.9066
41.7328
42.8052
40.7102
40.7879
40.7995
40.7879
40.2683
40.7879
40.2683
40.7547
40.7547
38.5959
41.3101
41.3101
41.3101
38.6285
40.4526
40.4526
40.4526
39.3836
40.4884
40.3126
40.9379
40.2498
40.4884
40.3126
40.2498
40.2498
42.9066
40.7102
40.7995
40.7102
42.388
41.9934
41.9934
41.7236
41.9934
41.7451
41.7451
40.4884
40.0398
41.7451
40.0398
40.0398
42.5817
39.463
41.7492
42.9592
42.6419
41.9392
42.9066
41.0277
41.0277
43.2149
41.0277
41.8676
44.6944
43.4442
42.2485
43.0479
41.4825
43.8495
42.5817
42.5817
42.7765
42.9592
41.7492
43.0479
43.8495
34.6565
33.9599
33.9599
34.4676
34.4676
34.2978
37.1802
34.6565
36.1431
36.1431
36.6232
35.3363
35.4338
35.4338
33.9491
35.4756
35.4338
33.3165
34.7969
35.4756
34.7904
34.7969
37.1802
35.9579
36.6598
36.6232
36.6232
35.9579
36.6232
38.2
37.0249
36.2814
38.5531
36.8827
36.2814
36.6662
34.7969
37.1987
36.5977
38.7293
37.1802
37.5345
38.4181
37.5345
38.5531
39.2384
38.2
39.2384
37.6926
37.6926
38.2
38.5531
37.6926
35.8043
37.4623
37.1987
38.4966
37.4496
38.3341
36.8798
38.7293
38.7293
36.8798
40.3874
40.3874
38.5629
39.8285
39.5722
39.2384
39.2384
39.2384
39.0458
37.7354
39.299
39.299
40.2893
39.5569
39.299
37.4623
40.5431
38.4966
38.9808
40.1736
40.1736
38.7939
38.7939
38.586
40.5187
41.7328
41.7328
41.7328
42.7663
41.3081
40.146
41.785
39.5722
39.5569
41.785
40.304
38.9141
41.1825
41.747
41.3101
40.4526
40.5431
41.747
39.3836
41.0457
40.1736
42.6491
42.6491
42.6491
41.732
41.1049
42.9435
41.1049
43.283
40.146
44.9141
41.785
41.9193
41.9193
40.2483
42.0834
42.0834
41.3101
43.6546
40.4526
42.1787
42.1787
44.5532
44.5532
42.9066
42.9066
42.9066
42.9066
43.7593
43.7593
40.7995
42.8052
43.283
41.9193
43.283
44.829
44.829
42.9642
44.829
44.5983
44.5983
42.9642
43.7681
42.5268
46.5256
42.5817
44.5532
44.5532
42.9592
41.9392
42.9592
42.6419
44.965
42.8052
43.2149
44.829
44.6944
45.2936
44.3314
44.3314
44.3314
44.3314
42.9592
44.3314
46.0199
44.965
47.9628
45.3713
46.3309
46.3309
50.3133
46.485
35.9034
35.3751
35.3751
35.4756
36.1431
35.9034
36.6598
37.6385
35.3363
37.6385
35.7926
37.2074
35.4756
35.4756
36.6524
40.2111
38.1972
38.5531
38.9593
36.6598
38.2
38.4054
38.4054
36.9129
35.7926
37.2074
38.4054
38.4054
37.4511
38.6238
37.3734
37.3734
38.7293
38.9402
38.9402
40.2111
40.2111
39.6165
38.5531
39.2384
38.5531
41.1545
38.5531
40.0684
40.0684
38.4966
38.7293
38.6238
38.7293
39.5658
39.5658
38.9946
38.9946
40.3874
39.6165
42.2169
40.4175
43.1233
39.2384
41.1545
41.2847
40.2893
43.4068
42.7144
41.501
39.6444
40.5431
40.0684
40.5431
40.6155
40.9194
42.6467
40.9194
41.4476
40.5187
41.4476
40.5187
42.3643
41.3912
42.3643
44.1035
43.1233
42.7663
43.1233
43.1233
43.1233
44.6221
41.2847
41.2847
45.1886
41.1825
43.7353
42.9376
42.9376
42.9376
42.6467
41.7362
44.3155
44.3155
41.7362
43.1949
42.3643
44.0138
44.1035
46.1478
45.9417
43.1785
43.8449
42.0834
45.6609
44.6221
46.6873
43.6546
45.0458
42.5268
45.8003
44.0846
44.0036
44.0036
45.8003
44.5532
44.216
46.1373
44.216
42.9435
45.9417
45.9417
45.9417
45.9417
44.829
46.6379
47.6318
46.6873
46.6873
47.5796
44.4628
42.5268
47.0942
47.0942
44.5532
46.5256
46.4635
47.1246
46.4635
47.1435
45.3668
47.1435
51.4603
45.9417
47.6318
46.2564
48.0134
45.2936
49.0239
50.3133
49.0239
47.5796
50.3133
47.5796
47.5796
45.4984
47.5796
47.1246
47.1435
50.3133
50.3133
46.3309
50.3133
46.3309
50.3133
46.485
49.9634
46.3309
50.3133
35.9034
37.6385
38.9298
37.6385
37.6385
37.6385
37.2074
37.4511
40.0674
38.1972
40.0674
38.9593
38.9593
38.4054
38.9593
39.7846
39.7846
38.6659
39.5658
39.5658
40.2111
41.8441
42.6486
40.4175
40.2893
40.4175
40.2893
38.9593
40.2893
38.9593
40.7591
38.4054
39.7846
41.1093
38.6238
40.444
42.044
39.5658
39.5658
38.9946
41.3116
44.4867
42.6486
42.6486
42.6486
42.6486
45.7158
42.1713
42.7144
42.7144
40.5431
42.5767
40.9194
40.6155
43.5281
42.7744
44.0846
40.9194
40.9194
38.9946
42.7744
42.7744
46.1855
44.355
46.7408
43.1233
43.1233
45.1886
45.7158
45.7158
42.8861
45.7158
42.9376
45.5866
42.9376
44.0846
47.4153
44.0846
43.1949
44.3641
45.3755
45.78
46.1855
46.1855
46.1855
47.6903
46.564
47.6903
47.6903
47.6903
43.7353
44.8947
45.8003
48.5983
49.1201
45.8003
45.8003
47.9434
46.4007
49.604
47.9434
45.5381
45.3668
45.3668
45.9417
46.1855
51.4603
46.1478
49.3926
49.3926
49.3926
46.7743
49.3926
50.0568
48.5983
50.0568
47.5112
49.8063
47.9434
47.9434
47.1435
51.4603
51.4603
49.3926
49.9634
49.9634
49.9634
49.9634
49.9634
49.9724
52.166
47.9434
50.04
47.9434
50.3133
50.3133
50.3133
50.3133
40.0674
38.9298
38.9298
39.7846
42.2061
39.7877
40.444
41.8441
42.6486
40.0674
42.0291
42.1713
41.4547
43.8488
42.1713
42.2061
40.444
42.6892
42.6892
41.353
42.7744
43.3021
43.3021
42.6486
45.217
45.217
42.6486
42.1713
44.719
43.9551
43.9551
42.7144
43.9551
43.3936
43.3936
42.7744
42.7744
46.7408
43.1233
47.8878
45.7158
45.7158
45.28
45.7158
48.1232
45.242
48.1232
45.242
44.774
46.677
46.0107
45.5381
46.1855
46.1855
48.6928
47.6903
47.6903
47.8878
47.6903
44.8947
48.1232
45.8003
49.1201
49.8063
49.8923
48.2957
48.4518
48.4518
46.1855
48.6928
51.5543
51.551
50.0568
52.5093
48.5983
48.5983
49.8063
49.604
52.0098
47.9434
49.3926
53.7612
52.5093
52.166
40.7149
40.7149
43.8488
47.8878
43.8488
43.8488
43.8488
43.8488
47.1955
43.3021
47.8878
47.8878
43.8488
45.28
45.28
45.28
48.0071
42.7744
49.0021
49.5929
47.1955
47.8878
48.1922
49.5929
48.4386
49.5929
48.4386
48.4386
48.4386
48.4386
50.3197
48.0071