# vtk DataFile Version 2.0
Unstructured grid legacy vtk file with point scalar data
ASCII

DATASET UNSTRUCTURED_GRID
POINTS 835 double
56.9246 99.3261 84.9246
56.9404 98.2948 100.129
52.3472 95.4178 109.998
51.5627 104.744 110.317
57.0433 101.398 116.754
51.5053 109.041 89.0617
53.2381 106.331 96.3161
56.3452 106.134 103.294
54.7114 112.125 106.722
55.4228 109.112 119.615
56.0954 114.722 93.0085
53.0275 117.681 111.743
62.8309 80.4673 94.4758
65.8852 82.812 105.436
58.1733 91.8702 86.2333
65.2625 94.0487 91.1176
59.6334 86.2777 99.6481
65.021 92.1991 98.8747
58.7507 92.0452 105.41
60.5423 94.7444 112.96
65.8271 92.7441 119.745
59.9497 102 79.8132
64.3745 96.7088 83.2055
57.3254 98.4904 91.9665
65.1956 102.544 89.3059
64.5549 97.2191 104.529
61.7737 104.224 98.9576
57.9603 100.529 108.473
64.8274 102.402 113.671
63.593 104.563 106.43
61.6056 112.675 73.9925
64.681 112.128 82.401
64.9488 106.021 79.0009
59.2323 106.793 91.6043
65.5866 111.377 89.2062
63.9226 110.448 103.306
66.1673 108.574 95.6437
58.918 108.151 112.077
64.2813 110.438 116.534
61.5152 105.562 123.477
63.7684 111.205 130.526
66.0048 104.938 135.305
62.481 120.866 71.7495
66.0552 116.786 77.5448
61.9759 119.912 83.054
58.4962 122.487 89.6229
63.5758 117.653 93.6727
58.8789 114.96 100.447
59.9934 123.313 98.2292
62.1448 115.337 109.303
58.407 122.167 106.887
65.6539 123.401 111.044
58.6818 115.921 116.763
66.6223 124.81 90.34
71.4254 81.6675 83.8311
74.6258 81.4239 90.9647
70.1414 81.2054 97.9402
75.3056 81.1118 104.155
74.2031 84.1317 115.974
74.6814 87.4114 70.214
74.5166 92.3384 77.0313
68.3724 88.863 81.9369
71.936 94.8983 84.4851
68.1648 86.5901 89.4468
75.1056 89.7619 89.9747
66.715 87.102 94.9055
71.0422 95.2704 102.383
70.4022 88.0139 101.966
72.7845 94.5211 96.2344
72.8274 87.7571 108.852
67.4197 92.7875 111.461
71.8343 94.1269 107.828
71.8305 87.4812 123.608
68.0976 92.6301 131.207
74.237 99.6811 72.2197
70.6036 102.745 83.7972
74.5615 98.2867 89.9049
67.0655 99.7637 96.8714
75.2944 102.619 95.7716
69.9393 104.428 102.342
70.8561 100.293 108.43
73.8333 103.515 114.446
68.0668 101.085 120.168
72.7075 96.0324 115.939
75.6469 104.594 123.08
71.2789 96.2731 124.514
68.2407 103.577 127.602
75.7385 101.414 131.05
75.2889 113.3 62.3397
72.1524 113.244 75.3962
75.3828 108.255 67.7521
71.861 105.387 76.367
72.6014 110.83 83.5327
71.5479 106.101 90.6286
73.0688 112.171 91.1624
72.6818 109.43 97.9255
70.9359 112.642 103.631
69.1065 108.525 109.761
72.2043 114.192 113.689
71.0117 108.109 118.751
67.8675 111.857 124.04
71.6553 109.419 131.389
72.5171 109.447 139.869
69.7437 119.181 70.3313
70.9001 121.803 79.396
69.3165 117.944 86.3873
71.7696 118.082 94.0519
67.135 115.702 99.6519
68.3989 123.41 98.5688
75.046 119.386 101.257
69.678 118.145 107.439
66.7526 118.012 118.603
75.5489 114.731 119.926
71.9805 123.759 119.736
72.4272 118.805 124.907
69.0191 117.13 129.842
70.3849 116.671 136.88
68.8526 126.953 73.6317
75.4124 125.339 95.0599
73.2985 129.19 88.0586
69.1111 131.205 95.3741
72.3465 125.27 105.503
74.6214 132.889 108.114
73.2011 126.808 113.235
74.2043 129.306 126.062
80.2175 71.8183 99.7123
77.2561 73.1017 107.364
83.0807 81.5198 80.8122
76.2597 83.9759 78.8246
85.5093 76.7946 81.3517
82.1603 77.6315 90.1472
81.2454 84.27 87.5927
79.2278 79.5262 97.1666
82.5303 85.1957 102.093
83.3718 77.9181 105.275
80.4848 78.0182 113.78
80.2155 84.2557 109.644
84.4853 79.6387 120.762
80.7899 79.9917 125.506
82.2618 86.6654 66.3574
80.0465 94.021 70.3865
81.3135 86.5925 74.8088
82.3431 93.4093 78.6071
77.5867 88.134 82.9264
85.2468 88.872 83.979
83.8574 87.4165 93.8557
80.137 94.056 86.3397
80.271 94.2218 94.3823
76.249 86.8146 96.8373
76.8806 91.2315 102.708
83.2634 94.2104 101.853
78.1267 91.0863 113.515
84.8277 90.4407 108.327
78.3596 92.9282 121.21
82.464 86.549 117.396
79.9154 86.506 125.416
76.3099 92.2389 129.19
83.6117 93.1189 128.031
78.9599 95.0233 136.03
81.5261 87.169 137.346
81.4249 103.823 74.5398
84.7429 103.154 67.3555
77.0437 99.3723 80.343
84.3616 100.814 83.5473
82.308 100.729 91.466
78.0363 104.689 86.9762
76.7778 99.4662 102.034
83.6768 101.267 98.2017
77.895 96.1771 108.076
84.4225 101.498 105.893
78.1286 104.043 108.49
82.7769 97.3611 112.388
79.3862 100.153 117.901
85.7086 104.088 119.534
80.8755 99.3124 125.108
84.2024 99.9348 132.454
79.2268 110.863 55.434
84.25 105.564 59.3195
83.8025 113.049 62.6457
80.5401 109.866 68.4165
79.7131 112.005 75.2662
78.0573 107.013 80.8144
85.676 109.112 80.5719
80.4066 108.887 91.8201
85.4077 113.655 94.5456
77.9675 113.427 97.2626
79.7442 106.649 100.668
76.3336 111.221 105.836
82.9325 110.593 108.425
85.5372 104.849 112.815
78.7752 109.39 114.854
82.3868 110.513 121.391
77.4768 111.352 127.279
85.0484 107.964 129.442
79.7587 107.863 135.414
77.2722 119.686 73.4203
83.9995 116.933 69.795
83.7585 116.756 77.6666
76.6623 117.26 81.4036
82.6333 121.059 82.2943
77.073 115.578 88.4704
83.4433 115.151 86.5084
80.2436 119.369 94.1533
77.5469 123.001 87.5553
85.4758 123.684 87.7579
82.8502 115.865 101.992
77.6784 118.228 109.182
85.5746 118.13 108.136
83.4266 118.109 113.81
80.84 123.792 113.843
81.62 116.981 118.144
76.4651 122.063 131.295
80.3499 117.884 124.854
82.5104 115.301 131.891
83.6489 121.455 137.297
82.2126 126.053 72.0379
77.9013 126.111 79.9408
81.0716 130.651 87.4446
82.8121 128.002 96.0123
76.398 130.931 100.258
81.6175 124.187 103.867
81.7524 131.377 109.454
83.0845 130.059 114.079
78.2604 123.974 122.468
85.249 125.762 122.475
82.1662 127.335 128.004
81.7247 128.085 134.348
81.922 133.638 68.6803
83.8471 136.494 81.4202
82.8168 136.216 99.1327
83.1398 138.653 108.285
85.2294 135.812 115.752
88.756 75.1503 78.7729
93.5294 72.3548 83.2282
91.3627 71.3339 90.4094
92.0463 71.3777 99.3712
89.7255 73.1303 107.346
93.0745 73.348 120.766
87.6664 75.8979 115.257
87.8336 82.7098 70.9318
94.0278 81.5395 80.4636
89.2885 79.3959 86.8346
91.3645 84.0547 93.8718
94.5213 76.9871 93.2093
90.729 81.6696 103.106
86.7523 77.205 97.2995
87.9418 82.9026 110.557
94.4296 78.2577 110.129
90.7647 82.5811 118.787
90.5302 79.1676 126.235
88.1719 91.1947 69.2298
93.9827 93.6307 74.2205
89.2018 87.7724 77.4724
92.1798 88.4986 86.3568
87.0678 94.2267 89.1025
94.3535 91.7076 93.2788
89.2458 88.9111 99.7532
94.7895 94.6648 100.446
92.9903 88.7233 106.912
89.3947 89.5545 114.885
87.7097 88.7659 122.829
93.3755 93.724 122.336
95.1839 86.0987 125.036
88.7533 86.3658 130.267
86.9786 92.0889 135.063
89.753 99.9486 57.8992
92.4952 99.8119 68.9291
86.5094 98.1325 73.8149
90.3605 95.3342 81.3335
91.2268 103.568 76.9697
90.9901 104.167 84.25
94.3909 97.0233 87.7617
89.5078 101.914 90.9263
89.5296 96.0236 104.504
90.7828 102.465 100.676
88.5625 96.258 95.9618
89.4397 96.8323 111.7
91.6168 103.84 108.569
87.0713 96.5148 119.669
94.3054 100.699 115.703
95.0565 100.982 123.608
90.7614 95.3468 129.103
88.4152 101.853 125.983
93.4208 102.568 132.327
92.9491 96.5323 137.084
89.4442 111.954 56.9251
91.2661 107.617 64.0646
87.4497 109.824 72.4336
92.503 111.379 79.728
89.0046 110.723 87.9172
88.8759 107.28 95.1352
86.718 108.512 101.91
91.0155 111.811 106.549
87.388 112.495 114.671
92.2668 106.883 118.424
89.2025 110.305 122.97
94.3925 108.251 127.332
89.7159 113.395 130.375
87.457 104.904 137.911
94.4149 109.486 136.365
86.7979 112.925 138.395
93.8989 113.076 143.809
89.1921 118.074 62.7453
95.223 123.071 58.7197
93.3465 114.73 67.9181
89.5148 122.844 70.6747
90.2258 117.438 75.4631
89.7462 117.984 83.2004
91.0338 118.598 91.0929
91.2799 114.579 98.8338
86.6444 121.119 97.3758
95.1601 121.865 97.3867
90.9197 119.847 103.539
93.4543 116.95 110.299
89.2695 120.451 113.671
93.9647 115.091 117.976
93.5158 122.596 122.843
87.9688 120.597 119.1
87.1347 116.918 124.541
87.7004 121.958 130.492
93.7681 116.844 133.782
91.3027 119.529 139.309
91.1584 122.341 145.875
88.7078 125.423 62.5321
89.8432 130.322 68.1097
86.9229 132.71 74.993
93.4595 128.149 75.5901
92.793 125.872 84.5572
86.7547 125.132 78.8191
87.8904 130.856 85.5948
91.1702 132.323 80.6304
90.2893 127.141 92.4887
89.3709 126.742 99.6445
92.9121 132.979 99.0974
92.2067 125.884 104.48
87.1103 132.396 104.936
87.5551 125.818 109.119
94.7262 130.698 107.797
95.2672 124.117 113.852
88.3973 127.857 116.458
94.7105 131.753 116.771
90.1281 129.317 128.271
92.9207 127.327 136.289
91.5332 139.183 85.0201
87.8956 133.731 93.439
85.933 136.924 88.7533
89.5936 140.968 96.6972
90.7204 137.685 108.672
91.3437 138.724 115.053
90.5976 136.155 122.224
94.7685 134.617 126.734
93.6663 135.542 133.967
94.2507 145.328 90.7093
85.9275 143.803 114.128
97.2388 66.4542 79.0319
96.7436 66.4389 93.1666
99.1678 62.1763 105.25
98.0828 66.4504 118.927
99.4314 67.841 84.8457
99.789 75.7366 81.0851
101.471 72.6598 89.5274
99.5404 66.9663 100.581
100.159 72.0094 96.5472
98.5482 73.9673 104.775
97.2966 68.8275 111.003
103.103 74.661 120.059
98.6482 75.279 115.195
103.007 75.8141 127.048
95.6281 84.6995 73.1563
102.144 76.7404 73.2377
101.05 82.0398 66.7423
102.659 83.6003 78.2752
104.532 79.4326 85.7175
96.7027 82.6434 87.1647
101.508 80.1141 92.3695
96.8904 79.2281 99.2552
104.041 83.0083 99.26
103.864 76.4839 97.4927
98.848 83.0222 105.936
103.707 81.6937 112.98
95.6675 85.2044 113.668
97.8836 79.9186 122.076
99.2957 82.5735 130.552
104.607 89.578 65.9719
101.031 90.1382 73.338
97.0266 89.4223 80.2505
103.513 87.6261 85.2159
100.325 87.4552 92.77
101.383 94.5365 89.9696
96.7413 86.8162 99.45
100.285 91.4708 104.137
101.095 94.1359 97.0248
100.86 89.9239 110.919
96.3037 92.9558 116.005
103.906 93.9803 114.818
101.723 86.8487 118.73
102.059 94.8635 119.68
100.029 91.8399 124.666
104.493 90.2971 129.164
95.854 90.0747 132.679
100.397 86.2233 139.132
103.285 88.7407 133.878
103.708 104.562 55.5403
99.1647 101.337 65.1026
97.3939 100.365 57.5964
99.929 99.1432 73.9572
103.689 104.551 69.855
101.94 95.5483 82.2535
97.0086 100.112 80.8359
102.902 103.001 83.9697
99.982 101.793 89.4277
96.1307 100.474 95.2801
97.0283 101.153 103.87
102.215 99.7633 100.7
95.9075 96.1009 108.801
102.9 98.3781 108.949
101.195 104.386 114.16
103.441 100.223 123.204
101.606 99.7405 116.34
98.4698 96.8998 129.441
99.8947 99.5886 137.136
97.4377 100.665 145.191
97.6363 111.655 55.6091
99.6346 107.808 60.9631
98.348 108.686 66.1869
95.3091 106.696 71.6115
101.277 112.046 69.5553
97.1621 114.339 74.5011
101.892 106.813 76.8443
101.966 113.337 80.6998
97.5943 107.378 83.0619
95.6325 107.725 90.824
102.74 109.941 87.8113
101.845 106.767 95.1259
104.076 106.647 102.498
95.7245 108.072 99.0931
103.195 109.489 108.814
95.9565 109.267 112.865
97.2286 107.881 105.727
103.283 111.537 115.962
99.2558 107.234 120.277
103.605 112.791 124.03
100.564 105.197 127.867
100.315 113.977 131.306
100.667 107.686 142.145
101.329 106.809 134.727
95.5702 122.951 66.036
103.55 119.426 61.1366
101.289 119.29 68.5213
97.5774 122.875 73.5318
104.077 120.134 83.6672
96.4773 119.572 79.5435
97.5533 121.671 85.0152
98.1614 114.357 94.6783
104.018 115.762 91.5578
96.617 114.543 86.5983
98.1143 120.636 90.7533
101.291 123.263 93.8534
98.2592 115.016 103.126
103.079 120.163 99.1665
98.2727 122.539 105.79
99.8831 116.698 111.19
100.505 119.064 118.676
95.5092 115.81 125.066
101.033 119.423 125.387
95.7926 122.497 130.446
99.5061 118.913 138.366
99.7872 123.559 145.257
100.066 118.35 151.229
101.914 124.762 46.6222
102.088 124.066 54.617
96.563 130.33 63.5689
101.162 128.535 70.5375
99.9807 128.461 79.559
102.525 127.218 86.8391
97.598 128.926 93.0341
96.2075 132.682 86.164
99.164 127.831 101.044
101.549 131.501 97.0355
102.716 130.991 107.845
102.725 124.911 112.438
104.373 132.35 116.491
100.308 126.746 120.114
101.983 123.891 127.421
98.8925 130.616 130.545
96.6898 128.218 125.005
102.214 125.25 133.56
100.778 127.955 139.936
95.6199 134.813 71.7721
97.2879 136.291 79.237
104.071 135.683 84.7224
95.3966 137.187 92.357
103.382 141.275 91.6906
101.365 136.064 96.0829
99.5985 136.665 103.796
98.0645 142.768 98.1206
97.918 135.952 111.927
99.8954 134.989 122.108
96.8368 141.212 118.106
100.84 138.333 129.338
101.578 133.45 136.434
103.828 147.193 103.367
99.2029 143.133 109.506
106.987 66.6898 96.0387
105.215 65.6726 108.732
108.085 72.4028 87.029
112.769 74.4575 86.1737
113.513 72.0609 96.824
106.335 71.2211 102.461
104.983 73.8927 110.648
112.816 72.7153 112.516
106.73 69.4324 118.265
110.512 77.8814 71.6474
111.316 85.372 69.1434
108.128 76.4285 79.6177
111.191 83.8299 77.9693
109.422 78.0392 92.5582
110.925 82.5612 86.024
111.954 84.0332 96.2008
111.539 85.478 102.575
106.887 78.5216 104.8
111.58 80.8977 110.208
112.477 78.3716 118.583
109.352 85.4354 119.513
107.273 83.5613 126.635
106.546 81.7438 134.832
112.144 92.8134 63.3425
113.141 91.5815 75.4244
106.773 94.4075 71.5436
113.836 91.772 69.5539
106.827 90.8046 78.5471
111.754 90.1154 83.8688
113.054 87.6999 91.7707
107.403 90.2631 91.3823
113.226 94.4967 93.2909
105.892 89.3557 98.8527
111.844 93.6466 99.9853
107.322 93.3056 105.464
105.993 85.8714 106.99
108.363 89.1709 112.791
114.335 89.5204 107.282
107.396 92.529 123.28
113.177 92.682 117.971
111.241 94.7487 131.007
111.714 87.2713 132.133
105.698 93.8354 137.427
114.089 100.884 62.1319
106.495 98.3298 65.2407
113.123 99.0901 69.9475
114.145 95.9517 80.3259
108.046 98.6534 76.7789
113.511 102.588 83.7003
107.01 102.202 81.0763
108.472 96.9157 86.6329
106.806 98.9123 94.6988
114.286 101.656 91.2352
108.336 100.768 103.39
113.854 101.021 98.2704
110.286 96.3154 111.247
108.088 103.93 110.447
108.377 98.989 117.481
111.653 99.6604 124.675
113.592 102.487 132.427
105.638 99.9559 131.057
113.349 97.4625 139.008
106.974 102.106 138.762
105.95 103.469 146.857
107.448 105.479 62.7497
105.849 111.916 58.6074
108.332 111.648 67.4135
109.374 106.102 73.8825
105.801 114.163 74.6535
108.792 108.516 81.6108
107.723 104.959 89.0209
110.361 112.356 87.7382
105.596 113.172 99.271
109.046 106.446 96.467
113.193 105.807 103.827
108.965 112.059 111.163
113.407 108.287 113.964
109.952 111.583 104.979
107.375 106.262 118.56
111.367 113.839 118.3
108.224 106.352 126.259
108.917 114.2 129.456
108.629 108.25 134.121
111.473 107.939 141.54
105.115 113.506 138.634
107.418 117.714 52.8416
112.233 116.581 62.7074
113.665 115.955 72.3953
108.333 120.044 68.806
105.126 122.826 76.0566
110.065 115.742 80.0804
111.301 123.53 80.8705
107.037 123.233 91.3677
110.206 119.661 87.7166
110.495 117.624 95.5727
113.267 116.88 102.541
105.509 117.359 106.164
113.806 117.412 110.835
106.812 118.491 114.291
114.306 123.77 105.311
108.029 118.534 122.971
114.178 121.602 118.353
114.133 119.654 131.664
106.068 119.389 133.511
112.331 116.812 139.236
106.515 122.629 140.845
109.084 115.387 146.613
108.803 123.002 148.826
110.396 124.613 62.6558
108.772 124.404 57.6646
109.04 127.858 69.6887
107.918 130.481 78.4379
110.202 129.624 86.3141
106.371 129.346 93.8405
110.521 124.332 98.6008
106.982 131.705 101.048
106.076 124.526 104.793
110.985 125.212 111.796
111.427 132.751 113.585
111.766 129.81 120.642
107.009 124.616 118.51
108.224 130.287 132.725
107.229 125.724 126.173
111.59 128.73 139.647
113.884 130.426 147.228
109.551 135.922 91.7097
105.84 139.721 99.7049
113.689 137.937 98.8312
109.757 140.981 106.605
105.397 137.709 110.917
111.148 134.181 106.27
113.773 140.59 112.381
109.998 138.185 119.471
106.725 133.847 125.526
109.594 146.583 97.9613
111.986 143.129 102.569
112.559 150.548 104.767
107.086 145.28 111.229
106.383 152.566 109.973
117.229 75.0972 90.2385
116.018 71.5242 104.778
117.956 80.2241 83.0064
118.791 82.5553 91.9511
115.093 78.9833 102.026
121.42 76.7665 97.0374
121.53 84.2367 101.697
115.61 85.5201 114.241
123.167 81.3303 114.955
116.486 83.2289 126.502
120.158 94.3595 69.3362
118.362 87.6104 77.5413
122.199 94.1829 81.0361
119.788 87.8053 84.5227
120.767 90.0912 92.1932
115.637 88.0029 88.2453
117.346 89.2583 97.7781
120.786 93.0778 103.597
121.98 87.1856 109.091
117.786 94.3171 111.851
121.438 89.9917 116.61
114.599 90.4586 125.175
121.99 89.8684 127.713
117.889 90.7666 136.165
121.113 103.006 69.8903
115.747 101.95 75.5005
120.397 101.039 80.4726
117.315 95.534 86.8786
121.532 101.948 87.7362
120.465 97.5213 94.3265
120.132 100.299 101.281
114.56 97.5348 105.621
121.097 99.7727 107.98
116.084 102.892 110.416
122.733 98.5573 115.589
115.716 100.866 117.858
119.245 95.3317 121.771
119.102 103.112 125.165
119.133 97.1597 131.019
120.621 103.602 136.52
116.801 109.689 60.5684
114.646 106.838 67.8541
119.849 112.428 69.9055
115.825 109.456 76.2322
117.987 108.592 83.3096
115.243 108.487 90.4931
122.31 108.618 90.7671
119.945 105.107 95.7827
114.692 110.994 97.7629
121.506 107.691 102.148
122.919 106.212 108.576
116.996 111.033 108.037
123.704 111.925 109.235
114.523 107.729 121.33
120.681 106.843 115.793
121.46 110.726 122.612
115.725 109.47 128.288
115.929 111.184 135.605
117.38 112.74 144.154
119.333 117.05 58.589
121.627 119.64 65.2897
122.194 119.604 72.8446
115.351 123.017 68.2441
114.884 117.395 84.6984
118.107 116.542 78.9201
118.141 122.569 85.577
116.673 117.006 92.0191
121.217 114.816 86.4384
120.988 114.348 99.4236
118.471 121.986 98.4226
118.997 122.779 112.164
120.398 117.972 106.06
119.566 115.567 116.361
120.205 122.509 122.893
115.306 116.23 124.201
121.351 116.049 128.988
120.799 117.163 136.743
115.123 122.492 143.77
123.63 117.742 144.337
114.892 130.366 64.596
115.312 131.146 76.1233
118.607 124.091 77.9823
118.303 129.372 84.6229
122.343 124.085 91.4586
114.514 125.898 91.8527
120.492 132.055 92.3403
116.187 129.936 99.7788
121.905 125.572 104.544
117.534 130.076 109.201
118.813 129.692 117.371
114.616 126.621 127.206
122.316 124.28 130.419
122.458 130.188 124.989
117.186 132.024 131.303
121.746 123.956 140.109
116.61 125.398 135.248
117.546 132.848 137.562
118.977 138.681 75.3276
118.604 136.634 83.0323
117.875 139.164 91.5691
121.726 135.819 98.9026
121.13 137.589 112.919
118.476 137.154 105.612
115.704 135.12 124.863
115.34 145.193 94.1375
119.767 143.537 100.36
116.942 144.447 106.93
132.274 83.4507 84.6829
125.769 85.6524 88.0438
126.491 83.0796 95.2258
125.887 94.7682 88.7842
132.074 89.1727 92.1418
125.819 90.9463 97.8141
131.529 94.4183 100.879
127.565 91.3313 107.731
126.801 87.7262 121.139
127.103 97.956 71.2521
128.173 98.6655 78.7435
129.404 101.844 85.005
127.61 102.63 91.9619
126.873 98.9101 97.896
127.855 101.087 104.834
133.14 99.0517 111.486
127.436 103.497 112.24
126.34 96.4482 110.152
129.28 95.7016 118.761
126.633 103.932 120.663
125.162 97.3456 125.643
127.924 101.326 130.153
132.66 97.3711 132.338
126.51 108.676 73.0723
132.862 112.605 72.0149
125.157 106.246 80.1584
125.642 114.045 79.3413
132.643 106.685 78.6451
128.571 113.17 85.2835
127.013 109.646 87.1891
132.726 114.205 91.6928
127.148 109.709 96.0772
130.025 107.559 102.497
126.846 113.785 104.237
132.735 111.568 108.924
127.198 110.386 115.103
129.532 111.438 122.689
125.053 107.396 128.502
126.501 110.127 135.523
124.369 108.992 143.1
133.252 114.623 82.9266
126.289 120.486 85.0044
124.839 116.272 92.7668
130.439 121.994 94.616
126.105 120.304 100.874
132.75 115.107 99.9192
132.658 119.119 107.287
126.352 117.735 111.858
125.092 123.614 117
133.143 115.311 116.097
126.576 118.14 122.085
129.848 123.775 132.591
129.506 115.72 129.344
129.193 117.348 138.206
124.913 118.422 152.1
124.675 127.788 97.9542
130.322 126.172 104.459
125.314 128.091 110.778
132.118 125.441 113.38
131.159 132.458 119.25
130.17 125.577 122.741
125.86 133.226 116.139
125.268 142.085 95.1709
129.911 134.541 98.2755
126.317 133.82 105.62
138.936 94.6865 98.2179
134.139 90.7326 106.25
135.803 98.6966 80.6106
134.036 96.36 89.2183
139.878 101.95 90.0011
135.419 101.073 101.626
140.133 103.523 108.201
140.387 107.366 83.5406
133.939 107.238 86.9003
140.688 109.909 94.0701
141.478 113.705 87.3072
134.213 105.813 95.2349
138.157 109.13 102.098
133.913 105.106 107.469
134.518 105.704 123.186
134.369 106.496 115.205
134.44 121.434 87.5529
140.098 117.701 102.822
137.83 120.402 112.863
134.815 118.519 123.539
140.772 122.244 119.273

POINT_DATA 835
SCALARS radius double
LOOKUP_TABLE default
4.77354
5.09976
5.00635
5.00635
5.02687
5.04768
5.04768
5.04768
5.00635
5.02687
5.04768
5.00635
5.00635
5.03939
5.07354
5.04768
5.00635
5.09976
5.04768
5.09976
5.09976
4.67354
5.07354
5.00635
5.00635
5.09976
5.00635
5.07354
5.02687
5.07354
5.00635
5.00635
5.00635
5.09976
5.00635
5.00635
5.00635
5.00635
5.09976
5.04768
5.00635
5.00635
5.03939
5.00635
5.03939
5.03939
5.04768
5.09976
5.09976
5.09976
5.09976
5.08931
5.00635
5.03939
5.03939
5.08931
5.08931
5.07271
5.08931
5.08931
5.02621
5.03939
5.07271
4.17354
5.00635
4.27354
4.29976
5.03939
5.04768
5.08931
5.08931
4.29976
5.08931
5.08931
5.07354
5.02687
5.09976
5.04768
5.00635
5.07354
5.07354
5.08931
5.02687
5.09976
5.09976
5.08931
5.00635
5.09976
5.03939
5.02621
4.19976
5.02687
5.04636
5.00635
4.73939
5.07354
4.87354
5.09976
5.04768
5.03939
5.00635
5.07354
5.07354
5.03939
5.03939
5.03939
5.08931
4.87354
5.03939
5.08931
5.03939
5.04768
5.09976
5.00635
5.02687
5.02687
5.07354
5.08931
5.03939
5.03939
5.03939
5.03939
5.02621
5.00635
5.04768
5.02621
5.02621
5.02621
4.23939
3.99976
5.08931
5.02621
5.07271
5.07271
5.02621
5.02621
5.03939
4.32621
4.32621
5.03939
5.08931
5.08931
5.08931
4.33939
5.02621
5.08931
5.04768
5.02621
5.08931
5.03939
5.08931
5.03939
5.03939
5.09976
5.03939
5.0053
5.02621
5.03939
5.02621
5.02687
5.02621
5.08931
5.00635
5.0053
5.03939
5.09976
5.00635
5.03939
5.02621
5.09976
5.09976
5.04768
5.04768
5.04768
5.03939
5.09976
5.03939
5.02621
5.03939
4.19976
5.08931
5.0053
5.08931
5.02621
5.07271
5.07354
5.07271
5.03939
5.03939
5.04768
5.08931
5.03939
5.03939
5.07271
5.03939
5.08931
5.03939
4.63719
5.09976
4.73719
4.83939
5.08654
5.04768
5.09976
5.04768
5.08931
5.08931
5.09976
4.20635
5.04768
4.30635
5.09976
5.00635
5.04768
5.04768
5.09976
5.08931
5.02621
5.04768
5.07271
5.0053
4.14768
4.24768
5.00635
5.03939
4.50635
4.60635
5.08931
5.08931
5.03939
5.00635
5.09976
4.09976
5.0053
5.0053
5.04768
5.04768
5.09976
5.09976
5.03939
5.03939
5.04636
5.0053
5.02621
5.02621
5.02621
5.03939
5.07271
5.03939
5.03939
5.02621
5.08931
5.04684
5.04684
5.02621
5.03939
5.02621
5.02621
5.07271
5.02621
5.08931
5.09976
5.07271
5.03939
5.02687
5.02621
5.07271
5.07271
5.08931
5.07271
5.09802
5.0053
5.08931
5.08931
5.08931
5.08931
5.02621
5.03939
5.07271
5.09976
5.03939
5.07354
5.03939
5.02687
5.00635
5.08931
5.07271
5.08931
5.03719
5.09802
5.02621
5.02621
5.02621
5.02621
5.03939
5.03939
5.07354
5.00635
5.08931
5.02687
5.04768
5.01647
4.88931
5.02621
5.03939
5.09976
5.08654
5.08654
5.02687
5.0398
5.04768
5.02687
5.0398
5.04768
4.94768
5.08931
5.09976
5.04768
5.09976
5.09976
4.87354
4.97354
5.06043
4.88931
5.03939
5.08931
5.04768
5.02272
5.09976
4.64768
4.64768
5.09976
4.60635
5.03939
4.60635
5.04768
5.04768
5.04768
5.09976
5.04768
5.09976
5.09976
5.07354
5.07354
4.49976
4.49976
5.04768
4.47354
4.47354
5.00635
4.50635
5.09976
5.04768
5.00635
4.37354
5.00635
4.70635
5.00635
4.27354
5.00635
5.00635
4.80635
4.70635
5.07271
5.00635
4.69976
5.00635
5.09976
5.0053
5.07271
5.07271
5.07271
5.04768
5.08931
5.08931
5.02621
5.09976
4.70635
5.09809
5.08931
5.03939
5.00635
5.07271
5.0053
5.08931
5.02621
5.08931
5.03939
5.04768
5.0053
5.08931
5.03939
5.08931
5.02621
4.38931
5.08931
4.38931
5.09976
4.39976
5.00635
5.03939
4.39976
5.09976
5.04768
5.04768
5.02621
5.0053
5.09976
5.0053
4.57354
5.00635
5.08931
5.09976
5.09976
5.09976
5.08931
4.24768
5.02621
4.24768
5.00635
5.03939
5.03939
5.09976
4.64768
4.64768
5.02621
5.08931
5.03939
5.03939
5.09976
5.0053
5.0053
5.09976
5.07271
5.03939
5.02621
5.03939
5.04768
5.0398
5.09976
5.03939
5.00635
5.03939
5.00635
5.09976
5.09976
5.09976
5.08931
5.09802
5.09802
5.09976
5.0463
5.0463
5.02687
5.08931
5.07271
4.47354
4.47354
5.0398
5.00635
5.07354
5.04768
5.04768
5.00635
4.20635
5.04768
5.01647
5.0398
5.0398
5.09976
5.09976
5.08931
5.09802
5.07354
5.07354
5.04768
5.00635
5.09976
4.17354
5.04768
5.08931
5.09976
5.04768
4.20635
5.04768
4.50635
5.04768
4.42687
5.08931
5.07354
5.08931
5.09976
5.03939
4.27354
5.07354
5.08931
5.07354
5.04768
5.03939
5.04768
4.52687
5.09976
5.03939
5.03939
5.04768
4.09976
4.19976
5.07354
5.04768
5.03939
5.04768
4.79976
5.09976
5.07271
5.04768
5.04636
5.04768
5.09976
5.04768
5.04768
5.04768
5.04768
5.08931
5.09976
5.07271
5.02621
5.0053
4.82621
5.0053
4.82621
5.09809
5.09976
4.32621
5.09976
5.09976
5.09976
5.09976
5.03939
5.09976
5.09976
5.09976
5.08931
5.09976
5.09976
5.02621
5.02621
5.07271
5.0053
5.02621
5.04636
5.0053
5.07271
4.57354
5.03939
5.08931
5.03939
5.00635
5.09976
5.03939
5.04768
5.03939
5.03939
5.07354
5.07354
5.08931
5.00635
5.00635
5.02621
5.09976
5.02621
5.00635
5.08931
5.09976
5.09809
5.03939
5.07271
5.08931
5.08931
4.79976
5.03939
4.79976
5.03939
5.03939
5.09976
5.03939
5.09976
5.00635
5.00635
5.09976
5.02621
5.04768
5.04768
5.04768
5.09976
5.03939
5.02621
5.03939
5.09976
5.03939
5.07354
5.03939
5.08931
5.08931
5.04768
5.03939
5.07354
5.07354
5.00635
5.07354
5.00635
5.08983
4.10635
4.10635
5.04768
5.09976
5.08931
5.03939
5.09976
5.08931
5.00635
5.08931
5.02621
5.04768
5.08931
5.08931
5.08931
5.02687
5.02687
5.09976
5.04768
5.09976
4.37354
5.09976
5.09976
5.08931
5.03939
5.04768
5.04768
4.37354
5.09976
5.00635
5.09976
5.00635
5.07354
5.04636
5.07271
5.04768
5.09976
5.09976
5.02621
5.09976
5.04768
5.02621
5.0053
5.07271
5.0053
5.07271
4.32621
5.07271
5.02621
5.09976
5.02621
5.04768
5.04768
5.07271
5.08931
5.0053
5.02621
5.02621
5.03939
5.07271
5.04636
5.04768
5.00635
5.04768
5.02621
5.03939
5.03939
5.03939
5.09976
5.09976
5.09976
5.00635
5.04636
5.03939
5.00635
5.07271
5.07271
4.79976
4.79976
5.03939
5.03939
4.77354
5.08931
4.69976
5.04768
5.09976
5.09976
5.04768
5.00635
5.07354
5.02687
5.02687
5.04768
5.07354
4.73939
5.09976
4.83939
5.03939
5.03939
5.08931
5.03939
5.09976
5.03939
5.03939
5.03939
5.03939
5.04768
5.07354
5.08983
5.02687
5.04768
5.09976
5.04768
5.04768
5.03939
5.04768
5.00635
5.04768
5.09976
5.09976
5.07271
5.00635
5.07354
5.04768
4.47354
4.87354
4.87354
4.47354
5.04768
5.04768
5.07354
5.03939
5.08931
5.03939
5.02621
4.94768
4.74768
4.74768
5.0053
5.04768
5.04768
5.04636
5.0053
5.03728
4.77271
4.69976
5.04768
5.08931
5.02621
5.02621
5.04636
5.08931
5.08931
5.07354
4.77354
4.69976
5.03939
5.00635
5.09976
4.44768
4.54768
5.03939
5.07271
5.04768
5.02621
5.07271
4.03939
4.13939
5.03939
5.08931
5.02687
4.79976
5.04768
5.00635
5.04768
5.08931
5.07354
5.07354
5.08931
5.08931
5.03939
5.03939
5.03939
5.03939
5.03939
5.03939
5.09976
5.08931
5.04768
5.04768
5.04768
5.07354
5.02687
5.09976
5.08931
5.09976
5.04768
4.73939
5.09976
4.83939
5.07354
5.03939
5.08931
5.0053
4.87271
5.08931
5.09976
5.09976
5.02687
4.50635
4.83939
5.03939
5.08931
4.83939
5.00635
5.00635
4.50635
5.04768
5.08931
5.03939
5.04768
4.60635
5.04768
4.70635

SCALARS status double
LOOKUP_TABLE default
1
1
1
1
1
1
1
1
1
1
1
1
1
1
1
1
1
1
1
1
1
1
1
1
1
1
1
1
1
1
1
1
1
1
1
1
1
1
1
1
1
1
1
1
1
1
1
1
1
1
1
1
1
1
1
1
1
1
1
1
1
1
1
1
1
1
1
1
1
1
1
1
1
1
1
1
1
1
1
1
1
1
1
1
1
1
1
1
1
1
1
1
1
1
1
1
1
1
1
1
1
1
1
1
1
1
1
1
1
1
1
1
1
1
1
1
1
1
1
1
1
1
1
1
1
1
1
1
1
1
1
1
1
2
1
1
1
1
1
1
1
1
1
1
1
1
1
1
1
1
1
1
1
1
1
1
1
1
1
1
1
1
1
1
1
1
1
1
1
1
1
1
1
1
1
1
1
1
1
1
1
1
1
1
1
1
1
1
1
1
1
1
1
1
1
1
1
1
1
1
1
1
1
1
1
1
1
1
1
1
1
1
1
1
1
1
1
1
1
1
1
1
1
1
1
1
1
1
1
1
1
1
1
1
1
1
1
1
1
1
1
1
1
1
1
1
1
1
1
1
1
1
1
1
1
1
1
1
2
2
1
1
1
1
1
1
1
1
1
1
1
1
1
1
1
1
1
1
2
1
1
1
1
1
1
1
1
1
1
1
1
1
1
1
1
1
1
1
1
1
1
1
1
1
1
1
1
1
1
1
1
1
1
1
1
1
1
1
1
1
1
1
1
1
1
1
1
1
1
1
1
1
1
1
1
1
1
1
1
1
1
1
1
1
1
1
1
1
1
1
1
1
1
1
1
1
1
1
1
1
1
1
1
1
1
1
1
1
1
1
1
1
1
1
1
1
1
1
1
1
1
1
1
1
1
1
1
1
1
1
1
1
1
2
1
1
1
1
1
1
1
1
1
1
1
1
1
1
1
1
1
1
1
1
1
1
1
1
1
1
1
1
1
1
1
1
1
1
1
1
1
1
1
1
1
1
1
1
1
1
1
1
1
1
1
1
1
1
1
1
1
1
1
1
1
1
1
1
1
1
1
1
1
1
1
1
1
1
1
1
1
1
1
1
1
1
1
1
1
1
1
1
1
1
1
1
1
1
1
1
1
1
1
1
1
1
1
1
1
1
1
1
1
1
1
1
1
1
1
1
1
1
1
1
1
1
1
1
1
1
1
1
1
1
1
1
1
1
1
1
1
1
2
1
1
1
1
1
1
1
1
1
1
1
1
1
1
1
1
1
1
1
1
1
1
1
1
1
1
1
1
1
1
1
1
1
1
1
1
1
1
1
1
1
1
1
2
1
1
1
1
1
1
1
1
1
1
1
1
1
1
1
1
1
1
1
1
1
1
1
1
1
1
1
1
1
1
1
1
1
1
1
1
1
1
1
1
1
1
1
2
1
1
1
1
1
1
1
1
1
1
1
1
1
1
1
1
1
1
1
1
1
1
1
1
2
1
1
1
1
1
1
1
2
1
2
2
2
2
1
1
1
1
1
1
1
1
1
1
1
1
1
1
1
1
1
1
1
1
1
1
1
1
1
1
1
1
1
1
1
1
1
1
1
1
1
1
1
1
1
1
1
1
1
1
1
1
1
1
1
1
1
1
1
1
1
1
1
1
1
1
1
1
1
1
1
1
1
1
1
1
1
1
1
1
1
1
1
1
1
1
1
1
1
1
1
1
1
1
1
1
1
1
1
1
1
1
1
1
1
1
1
1
1
1
1
1
1
1
1
1
1
1
1
1
1
1
1
1
1
1
1
1
1
1
1
1
1
1
1
1
1
1
1
1
1
1
1
1
1
1
1
1
1
1
1
1
1
1
1
1
1
1
1
1
1
1
1
1
1
1
1
1
1
1
1
1
1
1
1
1
1
1
1
1

SCALARS concentration double
LOOKUP_TABLE default
33.9291
32.612
32.9087
33.4291
32.9087
34.1697
32.8446
32.8446
33.6073
32.9087
34.1697
33.6073
32.612
33.4007
33.1036
33.1036
32.612
33.4226
32.612
33.3082
33.763
33.9291
33.1036
33.1036
33.9291
33.4226
34.0179
33.4291
32.9087
33.4291
34.6675
34.6679
34.6679
33.7484
34.9775
34.0179
35.5668
33.6073
34.2388
33.7799
35.2434
34.4642
35.9913
34.6675
34.9717
34.9717
35.1284
34.1697
34.9691
34.6969
34.9691
36.3462
33.6073
36.5419
34.6178
33.6242
33.6242
33.5425
33.2933
35.283
34.4307
34.6178
34.0619
35.1523
35.1523
35.1523
34.2988
33.4007
35.1523
33.4007
34.4396
34.2988
33.2933
33.7775
35.1523
35.1523
35.5935
34.0179
35.2716
34.5934
34.5934
34.4396
32.9087
34.9349
36.3177
33.7775
34.4642
35.0262
38.8967
35.8849
38.3723
35.1523
36.1604
34.9775
36.4676
35.2716
35.5668
34.5579
35.6107
35.1659
35.2434
36.2372
36.2372
35.9913
36.087
36.087
36.4676
35.5668
38.0067
37.2323
37.2323
35.614
36.4633
37.4014
36.2372
36.2372
36.2372
35.9913
38.0067
38.0067
38.0067
37.2323
37.2323
37.4014
37.8086
32.6677
32.6677
34.6133
34.6178
35.4429
33.8212
35.3925
33.5425
35.1583
33.7131
33.7131
34.4775
34.4168
34.4168
34.6133
35.283
34.6133
36.2442
34.6178
35.3925
33.8212
35.1523
36.1152
34.2988
34.2988
35.5986
34.8039
34.4775
34.9349
34.8039
34.0945
34.7987
35.3843
34.7987
36.0156
36.2442
38.3723
35.1523
36.9163
37.4365
35.5935
34.5934
37.4365
34.6823
37.2596
36.0164
36.3177
36.3177
37.6953
35.3843
36.6013
38.8967
37.5341
38.3723
38.3723
36.5934
36.6396
38.296
37.0272
38.5959
35.2716
36.6034
36.5478
36.5478
37.6953
36.9426
38.293
36.5744
38.3769
36.2315
37.825
39.5195
38.1566
37.6362
38.1566
36.4676
38.2776
39.0753
37.6362
39.7146
37.7837