# vtk DataFile Version 2.0
Unstructured grid legacy vtk file with point scalar data
ASCII

DATASET UNSTRUCTURED_GRID
POINTS 63 double
323.829 357.651 391.482
323.295 357.86 400.209
333.583 348.635 395.012
334.7 355.924 382.243
329.48 363.811 393.375
333.797 357.896 387.769
333.901 356.852 394.772
343.739 333.061 394.297
343.946 345.121 384.044
341.363 338.488 387.991
336.361 340.565 394.394
340.832 344.279 400.41
343.271 337.002 403.798
345.359 345.158 405.831
337.737 346.018 371.935
340.047 350.956 379.21
343.414 345.9 392.427
338.003 349.854 387.524
341.039 352.46 397.891
338.55 350.704 406.16
344.283 351.43 412.028
337.263 358.299 402.319
345.212 361.615 402.469
341.424 358.551 409.358
355.114 333.958 391.866
348.697 334.901 391.496
355.275 335.246 403.581
355.545 328.507 398.543
349.908 340.352 380.567
349.576 341.173 388.837
348.4 340.149 397.555
353.243 343.766 403.618
349.433 337.728 408.973
346.252 344.395 412.573
352.678 342.367 415.016
348.395 348.311 398.48
346.477 353.08 404.623
352.932 349.948 410.239
348.681 349.084 418.715
348.854 360.367 389.903
349.135 356.562 397.159
352.637 358.173 406.217
350.859 356.508 414.655
363.485 332.489 404.58
357.864 332.419 410.874
362.661 337.359 390.657
363.932 344.676 394.103
357.017 340.306 396.498
361.937 343.945 401.529
359.124 343.187 407.758
358.723 339.985 413.073
359.682 344.458 421.976
355.724 355.441 391.565
358.444 350.918 403.831
356.904 348.465 396.302
361.859 353.725 411.463
360.526 347.41 412.972
357.054 346.859 416.89
361.225 361.948 394.464
356.971 357.421 399.367
357.754 360.438 413.204
369.985 345.606 400.086
372.06 343.781 408.034

POINT_DATA 63
SCALARS radius double
LOOKUP_TABLE default
5.04636
5.04636
5.09809
4.32621
5.09809
4.32621
5.03728
4.37271
5.0053
5.0053
5.09809
5.07271
5.07271
4.87271
5.0053
5.07271
5.04636
5.04636
5.08666
5.03728
5.07271
5.03728
5.0053
5.03728
5.04636
4.37271
5.0053
5.04636
5.07271
5.07271
5.04636
5.09809
5.07271
4.97271
5.02621
5.03728
5.04636
5.0053
5.07271
5.04636
5.04636
5.0053
5.09809
5.07271
5.07271
5.0053
5.0053
5.0053
5.0053
4.27271
4.27271
5.08931
5.04636
5.07271
5.07271
5.04636
4.26002
4.26002
5.0053
5.0053
5.09809
5.07271
5.07271

SCALARS status double
LOOKUP_TABLE default
1
1
1
1
1
1
1
1
1
1
1
1
1
1
1
1
1
1
1
1
1
1
1
1
1
1
1
1
1
1
1
1
2
1
1
1
1
1
1
1
1
1
1
1
1
1
1
1
1
1
1
1
1
1
1
1
1
1
1
1
1
1
1

SCALARS concentration double
LOOKUP_TABLE default
28.0194
28.0194
27.1851
28.4892
28.0194
28.4892
29.3832
26.8788
28.925
26.8788
26.3858
29.4793
29.4793
29.4793
28.3807
29.3353
29.2921
28.8247
29.4679
28.7896
32.4955
30.8273
36.1429
30.8273
30.41
26.8788
29.2508
28.0525
28.925
28.925
29.0005
31.4935
30.9927
29.4793
30.9927
31.9446
32.1622
33.5097
32.4955
35.5756
35.5756
36.1429
35.8464
29.2508
29.2508
30.41
34.5339
30.41
34.4301
34.4301
34.4301
30.9927
35.827
34.6459
34.6459
37.0021
30.9927
30.9927
35.827
35.827
35.8464
34.5339
34.5339

SCALARS fibres double
LOOKUP_TABLE default
0
0
0
0
0
0
0
0
0
0
0
0
0
0
0
0
0
0
0
0
0
0
0
0
0
0
0
0
0
0
0
0
0
0
0
0
0
0
0
0
0
0
0
0
0
0
0
0
0
0
0
0
0
0
0
0
0
0
0
0
0
0
0

SCALARS phenot double
LOOKUP_TABLE default
7
7
7
7
7
7
7
7
7
7
7
7
7
7
7
7
7
7
7
7
7
7
7
7
7
7
7
7
7
7
7
7
7
7
7
7
7
7
7
7
7
7
7
7
7
7
7
7
7
7
7
7
7
7
7
7
7
7
7
7
7
7
7

SCALARS cont_pheno double
LOOKUP_TABLE default
0.5
0.5
0.5
0.5
0.5
0.5
0.5
0.5
0.5
0.5
0.5
0.5
0.5
0.5
0.5
0.5
0.5
0.5
0.5
0.5
0.5
0.5
0.5
0.5
0.55
0.5
0.5
0.5
0.5
0.5
0.5
0.5
0.45
0.5
0.5
0.5
0.5
0.5
0.5
0.5
0.5
0.5
0.5
0.5
0.5
0.5
0.5
0.5
0.5
0.5
0.5
0.5
0.5
0.5
0.5
0.5
0.5
0.5
0.5
0.5
0.5
0.5
0.5

SCALARS name double
LOOKUP_TABLE default
35
49
8
32
17
60
4
28
27
52
16
34
46
19
22
26
13
14
1
9
56
11
38
54
37
59
0
23
47
40
3
10
36
58
21
5
2
31
30
41
7
20
6
53
45
44
29
12
48
15
61
42
25
18
39
24
57
62
51
33
50
43
55

SCALARS interaction_phenotype double
LOOKUP_TABLE default
0
0
0
0
0
0
0
0
0
0
0
0
0
0
0
0
0
0
0
0
0
0
0
0
0
0
0
0
0
0
0
0
0
0
0
0
0
0
0
0
0
0
0
0
0
0
0
0
0
0
0
0
0
0
0
0
0
0
0
0
0
0
0

SCALARS vessel_interaction double
LOOKUP_TABLE default
0
0
0
0
0
0
0
0
0
0
0
0
0
0
0
0
0
0
0
0
0
0
0
0
0
0
0
0
0
0
0
0
0
0
0
0
0
0
0
0
0
0
0
0
0
0
0
0
0
0
0
0
0
0
0
0
0
0
0
0
0
0
0

SCALARS is_follower double
LOOKUP_TABLE default
1
1
1
1
1
1
1
1
1
1
1
1
1
1
1
1
1
1
1
1
1
1
1
1
1
1
1
1
1
1
1
1
1
1
1
1
1
1
1
1
1
1
1
1
1
1
1
1
1
1
1
1
1
1
1
1
1
1
1
1
1
1
1

SCALARS polarised double
LOOKUP_TABLE default
0
0
0
0
0
0
0
0
0
0
0
0
0
0
0
0
0
0
0
0
0
0
0
0
0
0
0
0
0
0
0
0
0
0
0
0
0
0
0
0
0
0
0
0
0
0
0
0
0
0
0
0
0
0
0
0
0
0
0
0
0
0
0

