# vtk DataFile Version 2.0
Unstructured grid legacy vtk file with point scalar data
ASCII

DATASET UNSTRUCTURED_GRID
POINTS 182 double
334.586 340.528 406.601
338.684 343.637 400.56
345.453 341.078 397.119
343.142 349.737 382.654
341.576 354.618 392.602
342.207 352.819 401.857
345.495 346.212 407.552
339.24 347.643 407.88
344.042 354.178 411.178
342.15 362.745 397.281
336.718 360.657 408.166
344.017 359.936 404.999
339.686 360.103 415.802
344.81 364.873 419.849
343.161 375.159 389.34
337.776 367.5 402.663
343.511 366.421 411.368
339.386 374.163 411.555
341.418 378.54 403.748
344.978 380.431 395.85
344.671 381.146 413.883
351.775 336.074 383.066
349.555 340.661 389.978
350.373 336.566 402.168
351.879 345.463 400.175
355.383 339.116 395.918
345.837 341.643 404.74
352.357 338.052 410.082
351.748 341.737 419.853
354.723 352.233 378.346
348.011 348.891 392.969
349.86 353.699 386.287
355.057 346.458 389.54
353.495 354.228 397.779
350.196 353.499 404.933
346.329 345.801 413.93
352.656 346.502 408.435
352.016 353.735 412.951
347.792 349.532 421.337
355.382 365.284 374.018
351.282 360.517 379.303
348.085 361.714 390.287
355.037 360.266 385.916
347.362 357.156 397.269
351.197 364.493 397.334
350.623 362.98 414.16
351.832 361.864 405.284
353.231 363.573 421.85
354.86 368.093 381.843
347.996 369.19 385.973
350.487 372.265 393.38
355.539 366.933 389.843
346.003 367.774 403.454
347.831 375.08 400.701
352.897 368.444 409.145
347.124 374.791 408.904
354.032 374.049 405.613
353.772 370.616 417.044
345.823 372.761 417.152
349.694 370.206 423.87
348.59 373.937 429.978
350.265 379.959 389.193
352.361 384.28 396.396
355.556 376.379 399.858
351.714 381.233 405.094
352.821 378.166 413.538
350.617 382.979 419.91
364.853 343.723 379.702
358.853 340.345 385.289
361.966 342.453 393.464
357.474 340.709 404.21
359.092 342.22 412.766
356.002 352.603 370.046
357.811 353.082 386.336
363.902 347.484 387.325
359.854 350.817 394.011
362.868 346.131 401.008
357.369 350.994 402.199
360.263 349.423 408.39
355.658 348.497 418.259
362.789 349.172 415.438
362.34 348.697 423.067
360.537 358.858 373.55
361.911 364.457 383.878
361.686 356.981 381.107
356.324 358.631 393.149
362.334 363.883 394.685
357.659 361.37 399.588
364.944 359.086 403.732
363.807 356.398 396.606
358.298 358.235 402.827
364.435 356.311 411.572
357.651 356.814 408.4
357.998 360.252 415.728
361.658 364.944 421.365
361.881 373.593 383.096
363.117 370.357 390.36
358.255 370.176 396.577
359.717 367.791 404.58
363.601 375.218 400.773
360.228 368.028 413.106
361.392 378.914 377.09
357.17 377.684 392.653
361.96 381.325 385.87
365.117 378.277 392.783
360.34 382.263 403.984
360.514 384.441 396.139
359.605 375.702 409.384
357.495 385.365 379.714
367.334 339.377 370.369
373.641 345.041 381.762
369.935 338.005 377.71
367.046 339.522 387.411
370.302 339.747 395.101
370.778 344.827 401.595
373.661 337.751 404.586
366.152 341.282 407.137
373.288 340.684 412.361
367.792 351.76 379.727
365.578 355.275 388.582
372.376 348.31 389.339
367.555 348.086 394.643
371.135 352.436 385.835
374.716 351.607 401.206
370.937 353.916 395.443
367.82 350.601 406.233
369.38 346.233 414.026
375.005 350.001 408.954
369.99 352.215 413.339
367.267 354.914 419.42
368.435 358.239 374.413
369.319 359.728 382.409
374.018 364.045 377.234
369.044 362.949 389.865
369.68 361.756 397.211
375.192 360.841 401.968
366.029 363.914 409.418
371.815 358.084 408.834
368.977 362.849 417.942
366.199 359.512 426.052
366.444 368.674 377.912
371.745 366.87 383.715
369.729 374.961 386.209
369.436 372.157 394.561
367.087 368.523 385.483
367.423 367.888 401.527
374.988 368.013 397.3
366.471 372.175 408.53
373.278 366.677 411.8
378.954 336.574 381.985
375.827 340.81 389.018
378.963 338.85 397.45
379.158 344.131 403.824
378.506 350.64 384.558
375.926 355.484 377.717
380.861 349.789 391.41
375.719 346.42 395.58
383.432 348.662 399.056
381.306 354.709 398.39
380.197 346.263 412.532
382.055 353.912 410.144
378.013 355.392 405.117
375.486 353.26 416.645
382.539 353.643 417.769
377.607 346.455 420.281
375.841 357.512 392.177
377.677 364.274 390.033
383.558 356.97 392.171
383.457 358.122 402.163
381.186 362.258 397.061
382.326 360.953 407.455
376.89 360.445 415.368
378.146 370.38 379.968
376.652 373.584 391.041
382.989 369.435 394.186
377.027 369.137 385.956
380.916 372.107 401.68
378.865 366.442 406.343
377.696 373.431 409.476
378.671 378.783 396.792
389.569 354.49 403.525
386.24 366.01 402.143

POINT_DATA 182
SCALARS radius double
LOOKUP_TABLE default
5.02621
4.92621
5.0053
5.0053
5.04636
5.0053
4.12621
5.0053
5.09809
5.02621
5.02621
5.0053
5.02621
5.02621
5.0053
5.02621
5.0053
5.08931
5.07271
5.07271
5.08931
5.08931
5.09976
5.0053
5.0053
5.09976
4.22621
5.0053
5.07271
5.03939
5.03939
5.0053
5.03939
4.94768
5.0053
5.07271
5.07271
5.02621
5.07271
5.04636
5.0053
5.03653
5.0053
5.03653
5.09809
5.0053
5.02621
5.08666
5.07271
5.07271
5.07271
5.07271
5.09809
5.03939
5.04636
5.03939
4.60492
5.04636
5.08931
4.68931
4.78931
5.02621
5.02621
4.60492
5.07271
5.0053
5.0053
5.09976
5.08931
5.03939
5.0053
5.0053
5.03939
5.0857
5.08931
5.09976
5.03939
5.04768
5.03653
5.0053
5.07271
5.0053
5.0857
5.07271
5.0857
5.00492
5.00492
4.28931
5.09809
5.02621
4.28931
5.03728
5.02621
5.02621
5.02621
5.07271
5.00492
5.04588
5.04636
5.08931
5.02621
5.02621
5.07271
5.0053
5.08931
5.07271
5.07271
5.0053
5.02621
4.94768
5.03939
4.94768
5.03939
5.02621
5.02167
5.02621
5.0053
5.02621
5.08931
5.0857
4.29976
5.07271
4.39976
5.04636
5.02621
5.04636
4.42621
4.97271
4.42621
5.0053
5.07271
5.02621
5.0053
5.00492
5.03939
5.03939
5.09809
5.07271
5.0053
5.02621
5.04636
4.32621
5.04636
5.08931
4.32621
5.02621
5.0053
5.04636
5.0053
5.03939
5.09976
5.09976
5.03939
4.93939
5.02621
4.93939
5.03939
5.07271
4.22621
5.08931
4.62621
4.62621
4.87271
5.07271
5.0053
5.07271
5.0053
5.0053
4.32621
5.07271
4.73939
5.07271
4.52621
5.08931
5.07271
4.52621
5.03939
4.73939
5.02621
5.03939
5.07271
5.08931

SCALARS status double
LOOKUP_TABLE default
1
1
1
1
1
1
1
1
1
2
2
1
2
2
1
2
2
1
1
1
1
1
1
1
1
1
1
1
1
1
1
1
1
1
1
1
1
1
1
1
1
2
1
2
1
1
1
1
1
1
1
1
1
1
1
1
2
1
1
1
1
2
2
2
2
2
2
1
1
1
1
1
1
2
1
1
1
1
2
1
1
1
2
1
2
2
2
1
1
1
1
1
1
1
1
1
2
2
1
1
1
1
1
1
1
1
1
2
1
1
1
1
1
1
2
1
1
1
1
2
1
1
1
1
1
1
1
1
1
1
1
1
1
2
1
1
1
1
1
1
1
2
1
1
2
1
1
1
1
1
1
1
1
1
1
1
1
1
1
1
1
1
1
1
1
1
2
1
1
1
1
1
2
1
1
2
1
1
1
1
1
1

SCALARS concentration double
LOOKUP_TABLE default
28.3532
28.3532
28.5905
30.7587
32.5606
32.0765
30.5981
29.6742
33.2249
32.7328
32.7328
35.008
32.7328
35.6326
35.8258
32.7328
34.6758
37.7986
38.115
38.115
38.4875
31.1079
32.001
29.8174
33.0077
32.001
30.5981
29.8174
32.0345
34.3209
33.9265
33.7848
33.9265
35.359
35.008
30.9601
32.4577
36.8888
32.0345
38.7421
37.4387
36.6942
37.4387
35.358
38.3945
36.5066
36.8888
38.9797
42.3246
40.1217
38.0659
40.1217
36.6748
37.7986
38.7876
37.7986
43.3088
41.974
38.4875
39.401
39.401
42.9217
42.9217
43.3088
42.6008
43.9501
41.7015
34.2496
31.1079
32.001
32.9456
34.2852
34.3209
36.1024
35.5252
35.359
35.359
35.359
36.2489
34.7605
37.2243
37.2243
39.7063
42.3246
39.7063
40.8037
40.8037
39.0298
41.8676
41.7445
39.0298
41.8676
39.0298
40.0661
40.0661
45.499
44.7615
43.3088
42.0318
49.5791
40.0661
45.499
42.7738
47.6384
49.5791
46.6075
46.6075
44.1799
45.499
34.2496
39.1108
34.2496
32.6227
35.8608
36.5718
35.7807
34.2852
35.7807
39.1108
39.9684
39.1108
38.5365
39.1108
42.8105
41.7445
38.4343
37.2243
40.1147
37.2243
41.3352
43.4315
43.4315
49.8386
45.2533
47.4371
47.4371
41.8676
43.7783
41.3352
40.0661
46.7599
49.1747
50.288
49.5791
49.1747
45.1709
49.9074
48.7996
49.1236
34.9038
36.2744
36.0888
38.3316
40.8087
43.4315
40.8087
38.3316
43.6934
49.0446
39.4357
44.7028
44.7028
40.1147
44.7028
40.1147
43.1428
47.7895
47.3992
49.0446
49.9074
47.4371
43.7783
49.1747
49.5791
49.9074
49.1747
53.5971
47.4371
54.0964
53.5971
48.3756
53.5971

SCALARS fibres double
LOOKUP_TABLE default
0
0
0
0
0
0
0
0
0
0
0
0
0
0
0
0
0
0
0
0
0
0
0
0
0
0
0
0
0
0
0
0
0
0
0
0
0
0
0
0
0
0
0
0
0
0
0
0
0
0
0
0
0
0
0
0
0
0
0
0
0
0
0
0
0
0
0
0
0
0
0
0
0
0
0
0
0
0
0
0
0
0
0
0
0
0
0
0
0
0
0
0
0
0
0
0
0
0
0
0
0
0
0
0
0
0
0
0
0
0
0
0
0
0
0
0
0
0
0
0
0
0
0
0
0
0
0
0
0
0
0
0
0
0
0
0
0
0
0
0
0
0
0
0
0
0
0
0
0
0
0
0
0
0
0
0
0
0
0
0
0
0
0
0
0
0
0
0
0
0
0
0
0
0
0
0
0
0
0
0
0
0

SCALARS phenot double
LOOKUP_TABLE default
7
7
7
7
7
7
7
7
7
7
7
7
7
7
7
7
7
7
7
7
7
7
7
7
7
7
7
7
7
7
7
7
7
7
7
7
7
7
7
7
7
7
7
7
7
7
7
7
7
7
7
7
7
7
7
7
7
7
7
7
7
7
7
7
7
7
7
7
7
7
7
7
7
7
7
7
7
7
7
7
7
7
7
7
7
7
7
7
7
7
7
7
7
7
7
7
7
7
7
7
7
7
7
7
7
7
7
7
7
7
7
7
7
7
7
7
7
7
7
7
7
7
7
7
7
7
7
7
7
7
7
7
7
7
7
7
7
7
7
7
7
7
7
7
7
7
7
7
7
7
7
7
7
7
7
7
7
7
7
7
7
7
7
7
7
7
7
7
7
7
7
7
7
7
7
7
7
7
7
7
7
7

SCALARS cont_pheno double
LOOKUP_TABLE default
0.5
0.5
0.5
0.5
0.5
0.5
0.5
0.5
0.5
0.45
0.45
0.5
0.45
0.45
0.5
0.45
0.45
0.5
0.5
0.5
0.5
0.5
0.5
0.5
0.5
0.5
0.5
0.5
0.5
0.5
0.5
0.5
0.5
0.5
0.5
0.5
0.5
0.5
0.5
0.5
0.5
0.45
0.5
0.45
0.5
0.5
0.5
0.5
0.5
0.5
0.5
0.5
0.5
0.5
0.5
0.5
0.45
0.5
0.5
0.5
0.5
0.45
0.45
0.45
0.45
0.45
0.45
0.5
0.5
0.5
0.5
0.5
0.5
0.45
0.5
0.5
0.5
0.5
0.45
0.5
0.5
0.5
0.45
0.5
0.45
0.45
0.45
0.5
0.5
0.5
0.5
0.5
0.5
0.5
0.5
0.5
0.45
0.45
0.5
0.5
0.5
0.5
0.5
0.5
0.5
0.5
0.5
0.45
0.5
0.5
0.5
0.5
0.5
0.5
0.45
0.5
0.5
0.5
0.5
0.45
0.5
0.5
0.5
0.5
0.5
0.5
0.5
0.5
0.5
0.5
0.5
0.5
0.5
0.45
0.5
0.5
0.5
0.5
0.5
0.5
0.5
0.45
0.5
0.5
0.45
0.5
0.5
0.5
0.5
0.5
0.5
0.5
0.5
0.5
0.5
0.5
0.5
0.5
0.5
0.5
0.5
0.5
0.5
0.5
0.5
0.5
0.45
0.5
0.5
0.5
0.5
0.5
0.45
0.5
0.5
0.45
0.5
0.5
0.5
0.5
0.5
0.5

SCALARS name double
LOOKUP_TABLE default
166
81
45
90
19
0
181
23
5
145
108
33
148
48
74
97
39
115
149
41
128
118
80
117
66
141
103
38
152
29
79
50
130
167
112
78
105
109
65
104
32
44
158
30
18
11
37
12
87
116
16
8
28
146
17
82
173
53
100
95
171
140
85
69
56
42
59
40
34
126
9
36
136
73
62
27
107
124
55
4
47
119
52
147
160
114
61
96
156
93
178
135
142
67
110
94
92
137
71
111
143
162
99
51
133
68
163
14
150
122
138
169
102
26
24
134
131
13
120
2
86
35
176
20
165
21
161
168
177
157
125
77
89
76
159
121
1
72
43
132
70
144
83
46
179
31
49
7
10
64
54
88
129
170
151
60
25
98
180
75
57
174
3
123
127
15
106
22
63
154
172
139
6
153
164
175
155
84
101
113
91
58

SCALARS interaction_phenotype double
LOOKUP_TABLE default
0
0
0
0
0
0
0
0
0
0
0
0
0
0
0
0
0
0
0
0
0
0
0
0
0
0
0
0
0
0
0
0
0
0
0
0
0
0
0
0
0
0
0
0
0
0
0
0
0
0
0
0
0
0
0
0
0
0
0
0
0
0
0
0
0
0
0
0
0
0
0
0
0
0
0
0
0
0
0
0
0
0
0
0
0
0
0
0
0
0
0
0
0
0
0
0
0
0
0
0
0
0
0
0
0
0
0
0
0
0
0
0
0
0
0
0
0
0
0
0
0
0
0
0
0
0
0
0
0
0
0
0
0
0
0
0
0
0
0
0
0
0
0
0
0
0
0
0
0
0
0
0
0
0
0
0
0
0
0
0
0
0
0
0
0
0
0
0
0
0
0
0
0
0
0
0
0
0
0
0
0
0

SCALARS vessel_interaction double
LOOKUP_TABLE default
0
0
0
0
0
0
0
0
0
0
0
0
0
0
0
0
0
0
0
0
0
0
0
0
0
0
0
0
0
0
0
0
0
0
0
0
0
0
0
0
0
0
0
0
0
0
0
0
0
0
0
0
0
0
0
0
0
0
0
0
0
0
0
0
0
0
0
0
0
0
0
0
0
0
0
0
0
0
0
0
0
0
0
0
0
0
0
0
0
0
0
0
0
0
0
0
0
0
0
0
0
0
0
0
0
0
0
0
0
0
0
0
0
0
0
0
0
0
0
0
0
0
0
0
0
0
0
0
0
0
0
0
0
0
0
0
0
0
0
0
0
0
0
0
0
0
0
0
0
0
0
0
0
0
0
0
0
0
0
0
0
0
0
0
0
0
0
0
0
0
0
0
0
0
0
0
0
0
0
0
0
0

SCALARS is_follower double
LOOKUP_TABLE default
1
1
1
1
1
1
1
1
1
1
1
1
1
1
1
1
1
1
1
1
1
1
1
1
1
1
1
1
1
1
1
1
1
1
1
1
1
1
1
1
1
1
1
1
1
1
1
1
1
1
1
1
1
1
1
1
1
1
1
1
1
1
1
1
1
1
1
1
1
1
1
1
1
1
1
1
1
1
1
1
1
1
1
1
1
1
1
1
1
1
1
1
1
1
1
1
1
1
1
1
1
1
1
1
1
1
1
1
1
1
1
1
1
1
1
1
1
1
1
1
1
1
1
1
1
1
1
1
1
1
1
1
1
1
1
1
1
1
1
1
1
1
1
1
1
1
1
1
1
1
1
1
1
1
1
1
1
1
1
1
1
1
1
1
1
1
1
1
1
1
1
1
1
1
1
1
1
1
1
1
1
1

SCALARS polarised double
LOOKUP_TABLE default
0
0
0
0
0
0
0
0
0
0
0
0
0
0
0
0
0
0
0
0
0
0
0
0
0
0
0
0
0
0
0
0
0
0
0
0
0
0
0
0
0
0
0
0
0
0
0
0
0
0
0
0
0
0
0
0
0
0
0
0
0
0
0
0
0
0
0
0
0
0
0
0
0
0
0
0
0
0
0
0
0
0
0
0
0
0
0
0
0
0
0
0
0
0
0
0
0
0
0
0
0
0
0
0
0
0
0
0
0
0
0
0
0
0
0
0
0
0
0
0
0
0
0
0
0
0
0
0
0
0
0
0
0
0
0
0
0
0
0
0
0
0
0
0
0
0
0
0
0
0
0
0
0
0
0
0
0
0
0
0
0
0
0
0
0
0
0
0
0
0
0
0
0
0
0
0
0
0
0
0
0
0

