# vtk DataFile Version 2.0
Unstructured grid legacy vtk file with point scalar data
ASCII

DATASET UNSTRUCTURED_GRID
POINTS 60 double
344.322 347.538 407.168
343.792 365.712 408.327
348.372 344.047 400.375
350.539 341.134 408.169
350.107 353.833 385.777
351.96 355.511 393.851
350.344 351.833 402.753
348.794 354.015 410.551
348.464 360.177 404.464
354.949 359.16 401.017
350.307 362.221 412.553
354.912 364.99 406.04
349.197 369.406 401.541
354.788 373.124 395.833
346.763 375.014 395.755
347.099 368.077 415.946
353.946 378.718 401.552
353.695 376.968 411.286
351.303 380.616 415.951
356.777 340.558 383.938
363.546 345.68 387.297
356.828 345.583 400.501
358.086 351.319 384.058
359.67 350.265 393.56
363.969 350.125 400.521
358.16 353.048 403.627
359.501 347.722 408.802
355.947 352.004 415.081
365.056 350.615 415.533
355.747 359.704 385.103
363.739 358.29 380.784
362.73 356.49 388.293
359.542 364.999 390.068
359.96 358.91 395.359
363.649 358.528 403.506
356.712 358.041 409.335
357.317 360.252 417.483
360.445 373.057 389.785
356.008 365.837 397.783
362.797 367.575 402.989
355.757 368.148 413.658
356.243 372.428 406.176
370.348 345.39 402.619
368.486 346.938 394.277
374.147 354.325 392.493
371.488 355.106 401.223
366.808 355.556 395.269
367.387 351.925 407.649
374.043 354.415 411.645
367.164 363.885 387.234
373.544 364.91 392.706
369.083 362.818 399.442
371.972 363.359 407.543
366.434 358.899 411.986
365.752 368.844 394.557
376.362 346.444 391.075
376.582 349.572 398.721
378.672 359.112 396.764
376.7 363.558 401.844
378.394 356.188 405.282

POINT_DATA 60
SCALARS radius double
LOOKUP_TABLE default
5.04636
5.04636
5.04636
5.04636
5.04636
5.04636
5.04636
5.09809
5.04636
5.03653
5.0053
5.04636
5.09809
5.04636
5.04636
5.0053
5.0053
4.5053
4.5053
5.02621
5.08931
5.0053
5.08931
5.07271
5.02167
5.03653
5.04636
5.04636
5.04636
5.09809
5.02167
5.02167
5.04636
5.0857
5.08666
5.04636
5.08666
5.04636
5.09809
5.09809
5.04636
5.0053
5.07271
5.07271
5.07271
5.04636
5.0053
5.04636
5.04636
5.03728
5.04636
5.07271
5.04636
5.04636
5.07271
5.02621
5.02621
4.8053
4.9053
5.04636

SCALARS status double
LOOKUP_TABLE default
1
1
1
1
1
1
1
1
1
2
1
1
1
1
1
1
2
2
2
1
1
1
1
1
2
2
1
1
1
1
2
2
1
2
1
1
1
1
1
1
1
2
1
1
1
1
1
1
1
1
1
1
1
1
1
1
1
1
1
1

SCALARS concentration double
LOOKUP_TABLE default
31.4797
36.1598
34.8841
31.4797
35.2488
35.2488
34.8841
34.1486
36.1598
37.2095
36.1598
40.7864
37.7052
40.0813
40.0813
36.1598
41.0234
41.0234
41.0234
34.5724
34.5724
34.7349
34.5724
35.3646
38.4437
37.2095
34.8947
34.8947
38.6127
39.559
41.2083
41.2083
39.559
37.2095
39.3465
36.1598
38.4057
39.559
38.7217
42.7689
40.7864
41.0234
36.8274
37.3151
42.303
41.4465
42.438
38.6127
42.5522
45.1004
46.7943
42.438
44.3902
44.3902
42.438
40.1272
40.1272
46.7943
46.7943
42.5522

SCALARS fibres double
LOOKUP_TABLE default
0
0
0
0
0
0
0
0
0
0
0
0
0
0
0
0
0
0
0
0
0
0
0
0
0
0
0
0
0
0
0
0
0
0
0
0
0
0
0
0
0
0
0
0
0
0
0
0
0
0
0
0
0
0
0
0
0
0
0
0

SCALARS phenot double
LOOKUP_TABLE default
7
7
7
7
7
7
7
7
7
7
7
7
7
7
7
7
7
7
7
7
7
7
7
7
7
7
7
7
7
7
7
7
7
7
7
7
7
7
7
7
7
7
7
7
7
7
7
7
7
7
7
7
7
7
7
7
7
7
7
7

SCALARS cont_pheno double
LOOKUP_TABLE default
0.5
0.5
0.5
0.5
0.5
0.5
0.5
0.5
0.5
0.45
0.5
0.5
0.5
0.5
0.5
0.5
0.45
0.45
0.45
0.5
0.5
0.5
0.5
0.5
0.45
0.45
0.5
0.5
0.5
0.5
0.45
0.45
0.5
0.45
0.5
0.5
0.5
0.5
0.5
0.5
0.5
0.45
0.5
0.5
0.5
0.5
0.5
0.5
0.5
0.5
0.5
0.5
0.5
0.5
0.5
0.5
0.5
0.5
0.5
0.5

SCALARS name double
LOOKUP_TABLE default
23
39
45
38
50
19
0
5
33
30
11
17
28
16
41
48
56
42
59
34
40
9
29
27
24
55
36
4
47
32
52
2
8
44
1
37
12
51
18
7
53
14
13
26
15
20
35
21
3
6
49
31
10
43
46
54
25
22
58
57

SCALARS interaction_phenotype double
LOOKUP_TABLE default
0
0
0
0
0
0
0
0
0
0
0
0
0
0
0
0
0
0
0
0
0
0
0
0
0
0
0
0
0
0
0
0
0
0
0
0
0
0
0
0
0
0
0
0
0
0
0
0
0
0
0
0
0
0
0
0
0
0
0
0

SCALARS vessel_interaction double
LOOKUP_TABLE default
0
0
0
0
0
0
0
0
0
0
0
0
0
0
0
0
0
0
0
0
0
0
0
0
0
0
0
0
0
0
0
0
0
0
0
0
0
0
0
0
0
0
0
0
0
0
0
0
0
0
0
0
0
0
0
0
0
0
0
0

SCALARS is_follower double
LOOKUP_TABLE default
1
1
1
1
1
1
1
1
1
1
1
1
1
1
1
1
1
1
1
1
1
1
1
1
1
1
1
1
1
1
1
1
1
1
1
1
1
1
1
1
1
1
1
1
1
1
1
1
1
1
1
1
1
1
1
1
1
1
1
1

SCALARS polarised double
LOOKUP_TABLE default
0
0
0
0
0
0
0
0
0
0
0
0
0
0
0
0
0
0
0
0
0
0
0
0
0
0
0
0
0
0
0
0
0
0
0
0
0
0
0
0
0
0
0
0
0
0
0
0
0
0
0
0
0
0
0
0
0
0
0
0

