# vtk DataFile Version 2.0
Unstructured grid legacy vtk file with point scalar data
ASCII

DATASET UNSTRUCTURED_GRID
POINTS 132 double
339.741 341.234 402.659
345.466 341.232 395.959
343.288 349.238 381.843
344.373 354.085 393.751
343.458 352.079 402.24
340.766 347.84 408.784
337.673 361.774 409.053
338.734 366.008 401.549
344.024 367.457 411.67
340.716 375.09 411.051
345.091 365.793 419.939
342.822 375.466 390.383
352.059 336.383 383.743
354.407 342.02 391.469
347.247 344.42 404.161
352.331 338.808 399.713
352.555 338.42 407.728
351.329 350.126 391.276
355.441 348.32 390.641
353.226 346.751 399.055
345.765 354.823 410.855
347.384 345.767 412.773
354.457 346.743 408.205
353.817 354.696 411.73
349.735 348.309 420.638
354.822 361.412 384.722
355.453 363.95 376.856
348.136 355.662 385.374
349.283 361.242 391.553
350.95 355.99 396.723
352.422 363.859 399.291
350.509 355.664 404.046
345.74 362.053 405.728
350.097 361.99 413.918
354.521 361.304 406.831
353.293 364.213 421.831
348.909 371.07 394.207
350.026 368.4 386.236
346.227 369.395 401.882
351.893 367.784 408.019
348.49 374.573 407.306
347.355 372.543 416.719
349.2 372.541 424.285
355.208 369.661 415.003
346.052 377.55 398.301
352.38 380.646 404.238
352.506 382.543 395.619
354.706 377.647 412.349
347.688 377.228 413.337
349.05 381.773 417.645
358.691 340.849 384.917
364.353 344.764 381.105
361.389 343.818 393.257
359.075 341.762 403.502
361.242 344.624 411.712
363.632 343.044 407.592
355.81 352.022 376.977
356.985 353.921 384.983
363.449 348.524 387.208
360.421 351.448 392.281
361.743 348.43 400.269
356.868 352.854 397.489
360.353 352.318 407.602
356.956 349.013 416.536
364.981 350.575 415.445
362.519 349.19 423.401
361.057 358.279 378.85
357.784 358.945 391.663
361.215 363.983 396.911
358.808 358.277 401.378
358.962 361.762 413.052
364.843 359.21 406.473
361.454 362.363 420.967
358.957 368.537 383.317
355.738 366.866 391.66
362.88 369.877 391.104
357.429 370.591 399.514
364.608 374.804 396.941
361.074 366.226 405.658
358.053 374.085 406.57
359.316 376.89 381.871
356.759 375.538 393.008
363.819 378.34 389.233
359.351 379.432 400.161
366.055 340.328 375.566
369.047 342.579 394.52
366.167 338.232 387.067
368.263 344.956 402.65
372.612 340.818 408.914
369.448 350.663 380.789
371.183 349.279 388.435
367.608 350.537 395.362
372.882 353.426 400.883
374.867 346.134 397.792
368.167 351.557 408
373.059 350.359 413.321
370.303 359.68 383.975
373.311 362.917 376.292
368.168 356.985 377.906
365.583 356.6 389.005
369.179 364.525 392.468
373.246 356.652 392.879
366.261 358.187 397.475
371.758 360.658 402.709
366.19 358.378 414.856
373.46 357.71 410.225
373.766 366.352 383.923
366.715 366.48 380.043
368.933 372.25 386.37
371.612 372.188 394.205
367.666 367.4 400.401
366.822 371.553 407.972
372.313 366.431 411.851
378.208 337.539 382.589
376.057 341.74 389.535
380.751 340.461 396.952
378.138 349.667 391.788
381.905 351.536 399.375
376.924 346.581 402.336
378.014 347.361 408.066
380.714 354.781 408.423
378.809 354.873 416.339
377.102 347.324 417.846
377.557 363.08 389.921
382.062 357.012 392.841
379.639 359.389 400.557
375.509 366.089 397.199
383.17 366.85 400.841
379.419 373.721 397.476
376.403 365.5 405.22
378.079 372.527 407.783
387.273 356.284 404.141

POINT_DATA 132
SCALARS radius double
LOOKUP_TABLE default
5.07271
5.0053
5.0053
5.04636
5.0053
5.0053
5.07271
5.07271
5.0053
5.08931
5.02621
5.0053
5.08931
4.63939
5.07271
5.0053
5.0053
4.13939
4.13939
5.0053
5.09809
5.07271
5.07271
5.02621
5.0053
5.04636
5.04636
5.0053
5.03653
5.03653
5.09809
5.0053
5.0053
5.0053
5.02621
5.08666
5.07271
5.07271
5.09809
5.04636
5.08931
4.28931
5.02621
5.04636
5.0053
5.07271
5.07271
5.0053
4.28931
5.0053
5.08931
5.09976
4.63939
5.0053
4.0053
4.1053
5.08931
5.0857
5.08931
5.09976
5.03939
5.09976
5.03653
5.0053
5.0053
5.0053
5.02167
5.00492
5.00492
5.07271
5.07271
5.08666
5.07271
5.0053
5.07271
5.00492
5.09749
5.02621
5.04636
5.0053
5.0053
5.07271
5.0053
5.0053
5.09976
5.02621
5.03939
5.02167
5.07271
5.08931
5.08931
5.07271
5.04636
4.23939
5.04636
4.5053
4.67271
5.0053
4.67271
5.0857
5.00492
5.07271
5.07271
5.08931
5.04636
5.0053
5.0053
5.04636
5.04636
5.02621
5.02621
5.04636
5.0053
5.03939
5.09976
5.09976
5.08931
5.07271
4.23939
5.08931
5.07271
5.07271
4.5053
5.0053
5.0053
5.07271
5.04636
5.08931
5.08931
5.08931
5.02621
5.07271

SCALARS status double
LOOKUP_TABLE default
1
1
1
1
1
1
2
2
2
1
2
1
1
1
1
1
1
1
1
1
1
1
1
1
1
1
1
1
2
2
1
1
1
1
1
1
1
1
1
1
1
1
1
1
1
2
2
2
1
2
1
1
1
1
1
1
1
2
1
1
1
1
2
1
1
1
2
2
2
1
1
1
1
1
1
2
2
1
1
2
1
1
1
1
1
1
1
2
1
1
1
1
1
1
1
1
1
1
1
2
2
1
1
1
1
1
2
1
1
1
1
1
1
1
1
1
1
1
1
1
1
1
1
2
1
1
1
1
1
1
1
1

SCALARS concentration double
LOOKUP_TABLE default
28.3532
28.5905
30.7587
32.5606
32.0765
29.6742
32.7328
32.7328
34.6758
37.7986
35.6326
35.8258
31.1079
32.001
30.5981
29.8174
29.8174
33.9265
33.9265
33.0077
33.2249
30.9601
32.4577
36.8888
32.0345
37.4387
38.7421
33.7848
36.6942
35.358
38.3945
35.008
35.008
36.5066
36.8888
38.9797
38.0659
40.1217
36.6748
38.7876
37.7986
38.4875
39.401
41.974
38.115
42.6008
42.9217
43.9501
38.4875
41.7015
31.1079
34.2496
32.001
32.9456
34.2852
34.2852
34.3209
36.1024
35.5252
35.359
35.359
35.359
36.2489
34.7605
37.2243
37.2243
39.7063
40.8037
40.8037
39.0298
40.0661
41.8676
40.0661
42.3246
40.1217
44.7615
43.3088
49.5791
42.0318
44.1799
45.499
42.7738
47.6384
46.6075
34.2496
35.8608
32.6227
36.5718
35.7807
39.1108
39.1108
38.5365
42.8105
38.3316
38.4343
40.1147
43.4315
49.8386
43.4315
39.9684
45.2533
43.1428
41.7445
47.4371
41.3352
43.7783
49.1747
46.7599
50.288
49.5791
45.1709
48.7996
49.1236
34.9038
36.2744
36.0888
40.8087
43.6934
38.3316
39.4357
44.7028
44.7028
40.1147
47.7895
47.3992
49.0446
49.9074
53.5971
53.5971
47.4371
54.0964
48.3756

SCALARS fibres double
LOOKUP_TABLE default
0
0
0
0
0
0
0
0
0
0
0
0
0
0
0
0
0
0
0
0
0
0
0
0
0
0
0
0
0
0
0
0
0
0
0
0
0
0
0
0
0
0
0
0
0
0
0
0
0
0
0
0
0
0
0
0
0
0
0
0
0
0
0
0
0
0
0
0
0
0
0
0
0
0
0
0
0
0
0
0
0
0
0
0
0
0
0
0
0
0
0
0
0
0
0
0
0
0
0
0
0
0
0
0
0
0
0
0
0
0
0
0
0
0
0
0
0
0
0
0
0
0
0
0
0
0
0
0
0
0
0
0

SCALARS phenot double
LOOKUP_TABLE default
7
7
7
7
7
7
7
7
7
7
7
7
7
7
7
7
7
7
7
7
7
7
7
7
7
7
7
7
7
7
7
7
7
7
7
7
7
7
7
7
7
7
7
7
7
7
7
7
7
7
7
7
7
7
7
7
7
7
7
7
7
7
7
7
7
7
7
7
7
7
7
7
7
7
7
7
7
7
7
7
7
7
7
7
7
7
7
7
7
7
7
7
7
7
7
7
7
7
7
7
7
7
7
7
7
7
7
7
7
7
7
7
7
7
7
7
7
7
7
7
7
7
7
7
7
7
7
7
7
7
7
7

SCALARS cont_pheno double
LOOKUP_TABLE default
0.5
0.5
0.5
0.5
0.5
0.5
0.45
0.45
0.45
0.5
0.45
0.5
0.5
0.5
0.5
0.5
0.5
0.5
0.5
0.5
0.5
0.5
0.5
0.5
0.5
0.5
0.5
0.5
0.45
0.45
0.5
0.5
0.5
0.5
0.5
0.5
0.5
0.5
0.5
0.5
0.5
0.5
0.5
0.5
0.5
0.45
0.45
0.45
0.5
0.45
0.5
0.5
0.5
0.5
0.5
0.5
0.5
0.45
0.5
0.5
0.5
0.5
0.45
0.5
0.5
0.5
0.45
0.45
0.45
0.5
0.5
0.5
0.5
0.5
0.5
0.45
0.45
0.5
0.5
0.45
0.5
0.5
0.5
0.5
0.5
0.5
0.5
0.45
0.5
0.5
0.5
0.5
0.5
0.5
0.5
0.5
0.5
0.5
0.5
0.45
0.45
0.5
0.5
0.5
0.5
0.5
0.45
0.5
0.5
0.5
0.5
0.5
0.5
0.5
0.5
0.5
0.5
0.5
0.5
0.5
0.5
0.5
0.5
0.45
0.5
0.5
0.5
0.5
0.5
0.5
0.5
0.5

SCALARS name double
LOOKUP_TABLE default
81
45
90
19
0
23
108
97
39
115
48
74
118
80
103
117
38
79
130
66
5
78
105
109
65
32
104
50
44
30
18
112
33
11
37
12
16
116
28
17
82
100
95
53
41
56
85
42
128
59
34
40
126
9
36
131
29
73
62
27
107
124
55
4
47
119
52
114
61
96
67
1
110
87
8
92
69
111
71
14
94
99
51
68
122
26
102
24
13
120
86
35
20
25
21
3
77
89
125
2
76
15
93
121
43
72
6
70
83
46
31
7
10
64
54
88
60
98
129
75
57
123
127
106
22
63
49
58
113
84
101
91

SCALARS interaction_phenotype double
LOOKUP_TABLE default
0
0
0
0
0
0
0
0
0
0
0
0
0
0
0
0
0
0
0
0
0
0
0
0
0
0
0
0
0
0
0
0
0
0
0
0
0
0
0
0
0
0
0
0
0
0
0
0
0
0
0
0
0
0
0
0
0
0
0
0
0
0
0
0
0
0
0
0
0
0
0
0
0
0
0
0
0
0
0
0
0
0
0
0
0
0
0
0
0
0
0
0
0
0
0
0
0
0
0
0
0
0
0
0
0
0
0
0
0
0
0
0
0
0
0
0
0
0
0
0
0
0
0
0
0
0
0
0
0
0
0
0

SCALARS vessel_interaction double
LOOKUP_TABLE default
0
0
0
0
0
0
0
0
0
0
0
0
0
0
0
0
0
0
0
0
0
0
0
0
0
0
0
0
0
0
0
0
0
0
0
0
0
0
0
0
0
0
0
0
0
0
0
0
0
0
0
0
0
0
0
0
0
0
0
0
0
0
0
0
0
0
0
0
0
0
0
0
0
0
0
0
0
0
0
0
0
0
0
0
0
0
0
0
0
0
0
0
0
0
0
0
0
0
0
0
0
0
0
0
0
0
0
0
0
0
0
0
0
0
0
0
0
0
0
0
0
0
0
0
0
0
0
0
0
0
0
0

SCALARS is_follower double
LOOKUP_TABLE default
1
1
1
1
1
1
1
1
1
1
1
1
1
1
1
1
1
1
1
1
1
1
1
1
1
1
1
1
1
1
1
1
1
1
1
1
1
1
1
1
1
1
1
1
1
1
1
1
1
1
1
1
1
1
1
1
1
1
1
1
1
1
1
1
1
1
1
1
1
1
1
1
1
1
1
1
1
1
1
1
1
1
1
1
1
1
1
1
1
1
1
1
1
1
1
1
1
1
1
1
1
1
1
1
1
1
1
1
1
1
1
1
1
1
1
1
1
1
1
1
1
1
1
1
1
1
1
1
1
1
1
1

SCALARS polarised double
LOOKUP_TABLE default
0
0
0
0
0
0
0
0
0
0
0
0
0
0
0
0
0
0
0
0
0
0
0
0
0
0
0
0
0
0
0
0
0
0
0
0
0
0
0
0
0
0
0
0
0
0
0
0
0
0
0
0
0
0
0
0
0
0
0
0
0
0
0
0
0
0
0
0
0
0
0
0
0
0
0
0
0
0
0
0
0
0
0
0
0
0
0
0
0
0
0
0
0
0
0
0
0
0
0
0
0
0
0
0
0
0
0
0
0
0
0
0
0
0
0
0
0
0
0
0
0
0
0
0
0
0
0
0
0
0
0
0

