# vtk DataFile Version 2.0
Unstructured grid legacy vtk file with point scalar data
ASCII

DATASET UNSTRUCTURED_GRID
POINTS 9 double
352.544 358.71 406.377
361.118 351.052 402.523
362.068 360.191 391.247
357.832 361.118 394.418
355.785 365.167 402.01
357.158 356.866 399.153
361.441 359.299 406.122
367.92 354.13 406.527
365.613 357.17 398.788

POINT_DATA 9
SCALARS radius double
LOOKUP_TABLE default
5.08666
5.03728
4.13728
4.23728
5.08666
5.08666
5.02287
5.03728
5.08666

SCALARS status double
LOOKUP_TABLE default
1
1
1
1
1
1
1
1
1

SCALARS concentration double
LOOKUP_TABLE default
38.6805
36.6931
38.6805
38.6805
38.6805
38.6805
39.8573
40.0793
41.0269

SCALARS fibres double
LOOKUP_TABLE default
0
0
0
0
0
0
0
0
0

SCALARS phenot double
LOOKUP_TABLE default
7
7
7
7
7
7
7
7
7

SCALARS cont_pheno double
LOOKUP_TABLE default
0.5
0.5
0.5
0.5
0.5
0.5
0.5
0.5
0.5

SCALARS name double
LOOKUP_TABLE default
5
4
6
8
7
0
1
3
2

SCALARS interaction_phenotype double
LOOKUP_TABLE default
0
0
0
0
0
0
0
0
0

SCALARS vessel_interaction double
LOOKUP_TABLE default
0
0
0
0
0
0
0
0
0

SCALARS is_follower double
LOOKUP_TABLE default
1
1
1
1
1
1
1
1
1

SCALARS polarised double
LOOKUP_TABLE default
0
0
0
0
0
0
0
0
0

