# vtk DataFile Version 2.0
Unstructured grid legacy vtk file with point scalar data
ASCII

DATASET UNSTRUCTURED_GRID
POINTS 86 double
344.702 341.808 395.826
345.279 353.161 402.485
341.436 348.443 408.287
342.301 364.711 410.285
345.562 369.102 403.451
344.028 375.478 390.381
345.74 344.162 403.572
352.582 339.656 405.486
349.959 353.079 385.894
348.416 353.848 394.828
355.166 351.323 392.102
351.926 348.585 401.683
349.96 346.482 409.856
347.988 354.013 410.658
350.583 347.947 417.703
354.183 361.506 384.092
355.323 359.589 392.248
347.13 360.957 404.325
354.348 356.824 400.038
349.937 362.022 413.422
354.592 358.43 407.778
355.228 363.153 421.089
352.634 374.217 392.722
352.554 365.784 398.684
352.634 366.543 406.949
355.038 369.058 414.62
347.261 371.74 410.919
346.974 368.905 418.333
346.581 375.868 398.574
352.347 378.336 403.799
353.026 380.717 397.49
353.187 376.965 411.141
350.881 381.3 417.837
357.077 339.425 383.654
365.15 342.517 385.558
356.821 342.944 391.293
359.434 342.769 402.47
361.336 345.234 410.729
355.798 351.115 379.054
362.522 348.609 390.265
358.668 354.16 385.786
364.361 354.128 395.614
358.63 348.983 397.833
358.888 351.059 405.601
356.525 352.446 413.786
364.269 350.131 416.644
361.133 358.533 379.557
364.505 358.337 388.331
364.672 357.915 404.556
361.189 360.872 397.922
359.667 364.313 404.787
358.778 361.22 413.957
358.927 366.304 389.511
359.907 374.856 388.656
360.572 368.844 397.875
358.014 372.889 404.997
359.988 376.968 396.976
370.862 343.132 404.884
369.876 347.722 393.312
365.898 348.067 400.746
371.665 355.005 400.549
367.562 350.813 408.332
375.006 352.064 413.485
369.097 360.308 381.917
366.723 363.807 392.761
372.075 357.237 392.615
372.651 365.392 387.116
374.79 365.228 395.216
371.484 362.542 403.58
366.117 358.154 412.888
372.601 357.559 408.72
366.226 368.226 381.186
366.129 370.376 388.486
367.629 365.771 399.307
368.488 372.495 395.5
365.759 369.986 404.951
372.147 366.817 409.811
377.885 339.968 383.132
376.007 341.051 392.121
377.487 349.779 391.137
375.685 347.964 399.423
378.28 346.846 407.588
380.379 359.353 393.475
378.589 360.597 401.423
380.663 355.662 407.729
379.674 369.929 400.537

POINT_DATA 86
SCALARS radius double
LOOKUP_TABLE default
5.0053
5.0053
5.0053
5.04636
5.09809
5.0053
5.0053
5.04636
5.04636
5.04636
5.08931
5.0053
5.0053
5.09809
5.0053
5.09809
5.03653
5.04636
5.03653
5.0053
5.0053
5.08666
5.0053
5.09809
5.04636
5.04636
5.07271
5.07271
5.0053
4.77271
4.87271
5.0053
5.0053
5.02621
5.08931
5.08931
5.0053
5.04636
5.08931
5.08931
5.0857
5.0053
5.08931
5.03653
5.0053
5.04636
5.02167
5.0857
5.08666
5.04588
5.04636
5.0053
5.04636
5.04636
5.09749
5.0053
5.0053
5.07271
5.07271
5.02167
5.04636
5.04636
5.04636
5.04636
5.04588
5.07271
5.04636
5.04636
5.02621
5.04636
5.0053
5.04636
5.04636
5.02621
5.07271
5.04636
5.0053
5.03939
5.03939
5.08931
5.08931
5.08931
5.0053
5.07271
5.04636
5.07271

SCALARS status double
LOOKUP_TABLE default
1
1
1
1
1
1
1
1
1
1
1
1
1
1
1
1
2
1
2
1
1
1
1
1
1
1
1
1
1
2
2
2
2
1
1
1
1
1
1
1
2
1
1
2
1
1
2
2
1
2
1
1
1
1
2
2
1
1
1
2
1
1
1
1
2
1
2
1
1
1
1
1
1
1
1
1
1
1
1
1
1
1
1
1
1
1

SCALARS concentration double
LOOKUP_TABLE default
30.3317
33.2113
30.1613
34.612
37.6338
37.6255
30.3317
30.0282
33.5149
34.7507
35.7928
33.2113
30.1613
33.5408
35.2294
37.6785
38.1399
34.9252
37.3822
36.42
38.0216
38.8229
41.6385
40.1064
39.2392
41.2531
36.8396
36.8396
37.6255
42.4548
42.4548
42.8661
42.2138
31.3881
34.5708
35.573
33.0318
34.9929
35.1426
35.573
39.2498
40.2114
35.7928
36.1879
35.2294
37.8461
41.043
39.2498
40.4972
41.4616
43.5792
38.0216
41.1366
44.956
41.4616
42.7465
41.6385
36.6613
37.177
36.908
42.104
38.8315
42.8154
44.951
41.4616
42.7612
44.951
48.6173
45.4736
41.8886
46.6001
44.951
44.951
45.4736
46.4154
43.5792
46.6001
37.2127
37.2127
40.438
40.6115
40.6115
47.43
46.9141
45.6361
50.7864

SCALARS fibres double
LOOKUP_TABLE default
0
0
0
0
0
0
0
0
0
0
0
0
0
0
0
0
0
0
0
0
0
0
0
0
0
0
0
0
0
0
0
0
0
0
0
0
0
0
0
0
0
0
0
0
0
0
0
0
0
0
0
0
0
0
0
0
0
0
0
0
0
0
0
0
0
0
0
0
0
0
0
0
0
0
0
0
0
0
0
0
0
0
0
0
0
0

SCALARS phenot double
LOOKUP_TABLE default
7
7
7
7
7
7
7
7
7
7
7
7
7
7
7
7
7
7
7
7
7
7
7
7
7
7
7
7
7
7
7
7
7
7
7
7
7
7
7
7
7
7
7
7
7
7
7
7
7
7
7
7
7
7
7
7
7
7
7
7
7
7
7
7
7
7
7
7
7
7
7
7
7
7
7
7
7
7
7
7
7
7
7
7
7
7

SCALARS cont_pheno double
LOOKUP_TABLE default
0.5
0.5
0.5
0.5
0.5
0.5
0.5
0.5
0.5
0.5
0.5
0.5
0.5
0.5
0.5
0.5
0.45
0.5
0.45
0.5
0.5
0.5
0.5
0.5
0.5
0.5
0.5
0.5
0.5
0.45
0.45
0.45
0.45
0.5
0.5
0.5
0.5
0.5
0.5
0.5
0.45
0.5
0.5
0.45
0.5
0.5
0.45
0.45
0.5
0.45
0.5
0.5
0.5
0.5
0.45
0.45
0.5
0.5
0.5
0.45
0.5
0.5
0.5
0.5
0.45
0.5
0.45
0.5
0.5
0.5
0.5
0.5
0.5
0.5
0.5
0.5
0.5
0.5
0.5
0.5
0.5
0.5
0.5
0.5
0.5
0.5

SCALARS name double
LOOKUP_TABLE default
45
0
23
39
28
74
81
38
50
19
79
66
78
5
65
32
44
33
30
11
37
12
16
18
17
53
82
48
41
56
85
42
59
34
40
80
9
36
29
62
73
35
27
55
4
47
52
2
1
61
71
67
8
51
69
14
68
13
26
24
20
21
3
77
76
15
6
49
84
43
72
70
83
31
46
7
10
64
54
60
25
75
22
63
57
58

SCALARS interaction_phenotype double
LOOKUP_TABLE default
0
0
0
0
0
0
0
0
0
0
0
0
0
0
0
0
0
0
0
0
0
0
0
0
0
0
0
0
0
0
0
0
0
0
0
0
0
0
0
0
0
0
0
0
0
0
0
0
0
0
0
0
0
0
0
0
0
0
0
0
0
0
0
0
0
0
0
0
0
0
0
0
0
0
0
0
0
0
0
0
0
0
0
0
0
0

SCALARS vessel_interaction double
LOOKUP_TABLE default
0
0
0
0
0
0
0
0
0
0
0
0
0
0
0
0
0
0
0
0
0
0
0
0
0
0
0
0
0
0
0
0
0
0
0
0
0
0
0
0
0
0
0
0
0
0
0
0
0
0
0
0
0
0
0
0
0
0
0
0
0
0
0
0
0
0
0
0
0
0
0
0
0
0
0
0
0
0
0
0
0
0
0
0
0
0

SCALARS is_follower double
LOOKUP_TABLE default
1
1
1
1
1
1
1
1
1
1
1
1
1
1
1
1
1
1
1
1
1
1
1
1
1
1
1
1
1
1
1
1
1
1
1
1
1
1
1
1
1
1
1
1
1
1
1
1
1
1
1
1
1
1
1
1
1
1
1
1
1
1
1
1
1
1
1
1
1
1
1
1
1
1
1
1
1
1
1
1
1
1
1
1
1
1

SCALARS polarised double
LOOKUP_TABLE default
0
0
0
0
0
0
0
0
0
0
0
0
0
0
0
0
0
0
0
0
0
0
0
0
0
0
0
0
0
0
0
0
0
0
0
0
0
0
0
0
0
0
0
0
0
0
0
0
0
0
0
0
0
0
0
0
0
0
0
0
0
0
0
0
0
0
0
0
0
0
0
0
0
0
0
0
0
0
0
0
0
0
0
0
0
0

