# vtk DataFile Version 2.0
Unstructured grid legacy vtk file with point scalar data
ASCII

DATASET UNSTRUCTURED_GRID
POINTS 59 double
344.424 347.36 407.275
343.97 365.806 407.861
348.3 344.476 400.607
350.81 341.139 408.278
349.993 353.765 386.104
351.149 351.276 402.911
348.528 354.063 410.569
351.83 356.032 394.157
355.565 365.476 397.761
349.366 360.112 404.375
355.451 358.246 400.41
349.818 361.558 412.211
355.223 365.438 406.005
349.064 369.227 401.957
354.815 372.879 396.003
346.867 374.887 395.634
347.251 368.056 415.798
354.106 377.879 401.67
353.358 377.353 412.186
356.991 340.638 383.747
357.128 345.48 400.767
357.98 351.362 384.441
363.757 345.725 387.38
359.526 350.342 393.464
363.394 350.252 400.551
357.808 353.86 404.063
359.112 348.858 408.387
355.842 352.174 415.229
355.678 359.592 384.987
363.672 358.235 381.435
362.906 356.361 388.778
359.615 364.784 390.159
359.917 358.511 395.214
363.706 358.473 403.686
356.699 358.282 409.344
357.094 360.522 417.365
360.36 372.905 389.946
362.638 367.174 403.013
355.697 367.604 413.464
355.729 372.751 405.987
370.429 345.611 402.546
368.277 347.522 394.361
374.158 354.704 392.874
371.663 355.198 401.299
366.655 355.384 395.523
367.693 352.113 407.57
374.342 354.665 410.791
365.552 351.234 415.321
367.082 363.49 387.346
373.549 364.729 392.67
369.205 362.568 399.346
372.269 363.17 407.187
367.117 359.157 411.619
365.7 368.5 394.965
375.982 346.589 391.553
376.273 349.404 398.651
378.046 360.002 397.495
376.453 362.67 401.974
377.074 356.918 405.7

POINT_DATA 59
SCALARS radius double
LOOKUP_TABLE default
5.04636
5.04636
5.04636
5.04636
5.04636
5.04636
5.09809
5.04636
5.09809
5.04636
4.73653
5.0053
5.04636
5.09809
5.04636
5.04636
5.0053
4.6053
5.04636
5.02621
5.0053
5.08931
5.08931
5.07271
5.02167
4.73653
5.04636
5.04636
5.09809
5.02167
5.02167
5.04636
5.0857
5.08666
5.04636
5.08666
5.04636
5.09809
5.04636
4.6053
5.07271
5.07271
5.07271
5.04636
5.0053
5.04636
4.44636
5.04636
5.03728
5.04636
5.07271
5.04636
5.04636
5.07271
4.82621
4.92621
4.2053
4.3053
4.44636

SCALARS status double
LOOKUP_TABLE default
1
1
1
1
1
1
1
1
1
1
2
1
1
1
1
1
1
2
2
1
1
1
1
1
2
2
1
1
1
2
2
1
2
1
1
1
1
1
1
2
1
1
1
1
1
1
1
1
1
1
1
1
1
1
1
1
1
1
1

SCALARS concentration double
LOOKUP_TABLE default
31.4797
36.1598
34.8841
31.4797
35.2488
34.8841
34.1486
35.2488
38.7217
36.1598
37.2095
36.1598
40.7864
37.7052
40.0813
40.0813
36.1598
41.0234
41.0234
34.5724
34.7349
34.5724
34.5724
35.3646
38.4437
37.2095
34.8947
34.8947
39.559
41.2083
41.2083
39.559
37.2095
39.3465
36.1598
38.4057
39.559
42.7689
40.7864
41.0234
36.8274
37.3151
42.303
41.4465
42.438
38.6127
42.5522
38.6127
45.1004
46.7943
42.438
44.3902
44.3902
42.438
40.1272
40.1272
46.7943
46.7943
42.5522

SCALARS fibres double
LOOKUP_TABLE default
0
0
0
0
0
0
0
0
0
0
0
0
0
0
0
0
0
0
0
0
0
0
0
0
0
0
0
0
0
0
0
0
0
0
0
0
0
0
0
0
0
0
0
0
0
0
0
0
0
0
0
0
0
0
0
0
0
0
0

SCALARS phenot double
LOOKUP_TABLE default
7
7
7
7
7
7
7
7
7
7
7
7
7
7
7
7
7
7
7
7
7
7
7
7
7
7
7
7
7
7
7
7
7
7
7
7
7
7
7
7
7
7
7
7
7
7
7
7
7
7
7
7
7
7
7
7
7
7
7

SCALARS cont_pheno double
LOOKUP_TABLE default
0.5
0.5
0.5
0.5
0.5
0.5
0.5
0.5
0.5
0.5
0.45
0.5
0.5
0.5
0.5
0.5
0.5
0.45
0.45
0.5
0.5
0.5
0.5
0.5
0.45
0.45
0.5
0.5
0.5
0.45
0.45
0.5
0.45
0.5
0.5
0.5
0.5
0.5
0.5
0.45
0.5
0.5
0.5
0.5
0.5
0.5
0.5
0.5
0.5
0.5
0.5
0.5
0.5
0.5
0.5
0.5
0.5
0.5
0.5

SCALARS name double
LOOKUP_TABLE default
23
39
45
38
50
0
5
19
18
33
30
11
17
28
16
41
48
56
42
34
9
29
40
27
24
55
36
4
32
52
2
8
44
1
37
12
51
7
53
14
13
26
15
20
35
21
3
47
6
49
31
10
43
46
54
25
22
58
57

SCALARS interaction_phenotype double
LOOKUP_TABLE default
0
0
0
0
0
0
0
0
0
0
0
0
0
0
0
0
0
0
0
0
0
0
0
0
0
0
0
0
0
0
0
0
0
0
0
0
0
0
0
0
0
0
0
0
0
0
0
0
0
0
0
0
0
0
0
0
0
0
0

SCALARS vessel_interaction double
LOOKUP_TABLE default
0
0
0
0
0
0
0
0
0
0
0
0
0
0
0
0
0
0
0
0
0
0
0
0
0
0
0
0
0
0
0
0
0
0
0
0
0
0
0
0
0
0
0
0
0
0
0
0
0
0
0
0
0
0
0
0
0
0
0

SCALARS is_follower double
LOOKUP_TABLE default
1
1
1
1
1
1
1
1
1
1
1
1
1
1
1
1
1
1
1
1
1
1
1
1
1
1
1
1
1
1
1
1
1
1
1
1
1
1
1
1
1
1
1
1
1
1
1
1
1
1
1
1
1
1
1
1
1
1
1

SCALARS polarised double
LOOKUP_TABLE default
0
0
0
0
0
0
0
0
0
0
0
0
0
0
0
0
0
0
0
0
0
0
0
0
0
0
0
0
0
0
0
0
0
0
0
0
0
0
0
0
0
0
0
0
0
0
0
0
0
0
0
0
0
0
0
0
0
0
0

