# vtk DataFile Version 2.0
Unstructured grid legacy vtk file with point scalar data
ASCII

DATASET UNSTRUCTURED_GRID
POINTS 141 double
339.677 341.419 402.67
345.485 340.925 396.497
343.679 349.624 381.844
342.822 353.958 393.236
343.302 352.013 402.037
340.049 347.896 408.541
345.579 354.451 411.054
337.822 361.584 409.757
344.775 365.368 420.413
338.433 365.73 402.357
343.697 367.396 411.855
340.423 375.06 410.838
343.052 375.897 390.141
351.749 336.321 384.132
352.89 340.774 391.676
347.02 344.427 404.316
352.173 337.928 399.83
352.402 338.685 408.409
347.289 345.131 412.576
355.005 351.42 378.063
349.164 349.171 392.136
348.208 355.097 386.023
353.033 345.998 399.081
350.943 354.456 404.265
353.867 346.829 408.054
353.68 354.665 412.074
349.38 347.875 420.726
354.429 361.534 384.123
355.142 364.05 376.365
349.005 362.183 390.686
350.087 356.433 396.005
352.657 364.135 398.869
345.736 361.727 406.034
350.116 362.193 414.15
353.931 360.882 407.067
352.835 364.077 421.714
349.432 371.246 393.974
349.877 368.758 385.753
355.453 366.81 390.835
345.836 369.024 401.542
351.939 367.921 408.017
348.35 374.988 406.789
355.238 369.305 415.474
347.324 372.257 416.65
349.418 371.835 424.249
351.649 380.633 392.141
345.808 377.593 398.443
352.194 381.23 403.624
352.697 382.743 396.622
355.166 378.282 412.323
346.756 379.099 412.995
349.942 382.288 419.443
364.919 343.781 380.456
358.673 341.526 385.522
361.117 343.579 393.668
358.614 341.086 403.251
360.047 344.231 412.54
357.522 352.789 372.291
357.385 353.782 384.811
356.048 347.507 389.477
364.315 348.399 386.776
361.055 351.968 392.916
361.697 348.031 400.543
356.072 352.895 398.335
360.043 352 407.487
356.607 349.111 417.327
364.657 350.443 415.126
362.437 349.36 423.279
360.391 358.156 378.787
357.358 358.689 391.698
361.463 364.098 396.75
359.182 358.704 401.837
359.373 361.725 412.88
365.18 360.43 405.964
365.047 356.171 410.115
360.32 363.273 420.584
358.369 368.613 383.188
362.596 369.478 390.757
356.934 372.043 400.088
364.342 374.671 398.849
357.236 369.233 395.998
360.579 366.091 405.742
357.982 374.113 406.443
359.659 376.664 381.88
357.389 375.991 393.062
363.689 379.663 387.73
359.383 379.553 400.393
366.25 339.381 373.961
369.025 341.408 394.071
366.033 338.243 387.25
369.153 345.583 401.486
372.718 339.244 403.728
365.544 341.685 407.577
372.808 340.859 410.839
369.312 351.261 380.224
372.223 348.291 384.674
371.64 349.038 389.684
367.847 349.771 394.926
373.645 352.971 401.05
374.595 346.146 396.01
368.464 350.797 407.52
372.459 350.816 414.475
370.968 359.527 383.399
373.289 363.366 376.185
367.735 357.039 375.752
365.941 356.314 389.222
368.939 363.928 392.357
373.652 356.224 392.617
366.27 357.29 397.487
371.42 360.728 402.841
372.715 358.011 409.449
366.227 359.583 422.973
367.172 358.335 415.837
374.399 366.843 383.656
366.474 366.504 380.096
368.763 372.333 386.135
371.489 372.207 394.166
367.687 367.775 400.277
366.609 371.588 407.836
372.189 366.317 412.145
365.566 375.868 392.583
378.447 336.51 383.216
375.999 341.877 389.271
380.548 340.302 396.76
379.199 349.942 391.152
377.46 345.819 402.667
382.164 351.527 398.942
378.463 346.85 410.381
380.72 354.903 408.117
379.63 355.173 417.154
377.469 346.574 418.401
377.576 363.167 389.657
382.512 357.045 392.618
379.958 359.291 400.589
375.508 356.499 412.9
375.406 365.972 397.416
383.194 367.396 400.722
379.052 374.292 397.363
376.914 365.485 405.976
377.959 373.173 408.2
387.503 356.276 403.481

POINT_DATA 141
SCALARS radius double
LOOKUP_TABLE default
5.07271
5.0053
5.0053
5.04636
5.0053
5.0053
5.09809
5.07271
5.02621
5.07271
5.0053
5.08931
5.0053
5.08931
5.03939
5.07271
5.0053
5.0053
5.07271
4.43939
5.03939
5.0053
5.0053
5.0053
5.07271
5.02621
5.0053
5.04636
5.04636
5.03653
5.03653
5.09809
5.0053
5.0053
5.02621
5.08666
5.07271
5.07271
5.07271
5.09809
5.04636
5.08931
5.04636
5.08931
5.02621
4.02621
5.0053
5.07271
4.12621
5.0053
5.08931
5.0053
5.09976
5.08931
5.03939
5.0053
5.0053
4.43939
5.0857
5.03939
5.08931
5.09976
5.03939
5.09976
5.03653
5.0053
5.0053
5.0053
5.02167
5.00492
5.00492
5.07271
5.07271
4.53728
4.53728
4.72621
5.0053
5.00492
4.24588
4.68931
4.24588
5.04636
5.0053
5.0053
5.07271
5.0053
5.0053
5.09976
5.02621
5.03939
5.02167
4.72621
5.0053
4.62621
5.08931
4.13939
4.23939
5.07271
5.04636
5.03939
5.04636
5.0053
5.07271
5.0053
5.07271
5.0857
5.00492
5.07271
5.07271
5.08931
4.17271
4.72621
5.04636
5.0053
5.04636
5.04636
5.02621
5.02621
5.04636
5.0053
4.58931
5.03939
5.09976
5.09976
5.08931
5.03939
5.07271
5.08931
5.07271
5.07271
5.0053
5.0053
5.0053
5.07271
4.17271
5.04636
5.08931
5.08931
5.08931
5.02621
5.07271

SCALARS status double
LOOKUP_TABLE default
1
1
1
1
1
1
1
2
2
2
2
1
1
1
1
1
1
1
1
1
1
1
1
1
1
1
1
1
1
2
2
1
1
1
1
1
1
1
1
1
1
1
1
1
1
2
1
2
2
2
1
2
1
1
1
1
1
1
2
1
1
1
1
1
2
1
1
1
2
2
2
1
1
1
1
1
1
2
2
1
2
1
2
1
1
1
1
1
1
1
2
1
1
1
1
1
1
1
1
1
1
1
1
1
1
2
2
1
1
1
1
1
1
2
1
1
1
1
1
1
1
1
1
1
1
1
1
1
1
1
1
2
1
1
1
1
1
1
1
1
1

SCALARS concentration double
LOOKUP_TABLE default
28.3532
28.5905
30.7587
32.5606
32.0765
29.6742
33.2249
32.7328
35.6326
32.7328
34.6758
37.7986
35.8258
31.1079
32.001
30.5981
29.8174
29.8174
30.9601
34.3209
33.9265
33.7848
33.0077
35.008
32.4577
36.8888
32.0345
37.4387
38.7421
36.6942
35.358
38.3945
35.008
36.5066
36.8888
38.9797
38.0659
40.1217
40.1217
36.6748
38.7876
37.7986
41.974
38.4875
39.401
42.9217
38.115
42.6008
42.9217
43.9501
38.4875
41.7015
34.2496
31.1079
32.001
32.9456
34.2852
34.3209
36.1024
33.9265
35.5252
35.359
35.359
35.359
36.2489
34.7605
37.2243
37.2243
39.7063
40.8037
40.8037
39.0298
40.0661
41.8676
41.8676
40.0661
42.3246
44.7615
43.3088
49.5791
43.3088
42.0318
44.1799
45.499
42.7738
47.6384
46.6075
34.2496
35.8608
32.6227
36.5718
35.7807
34.2852
35.7807
39.1108
39.1108
39.1108
38.5365
42.8105
38.3316
38.4343
40.1147
43.4315
49.8386
43.4315
39.9684
45.2533
43.1428
41.7445
47.4371
43.7783
40.0661
41.3352
49.1747
46.7599
50.288
49.5791
45.1709
48.7996
49.1236
49.5791
34.9038
36.2744
36.0888
40.8087
38.3316
43.6934
39.4357
44.7028
44.7028
40.1147
47.7895
47.3992
49.0446
43.7783
49.9074
53.5971
53.5971
47.4371
54.0964
48.3756

SCALARS fibres double
LOOKUP_TABLE default
0
0
0
0
0
0
0
0
0
0
0
0
0
0
0
0
0
0
0
0
0
0
0
0
0
0
0
0
0
0
0
0
0
0
0
0
0
0
0
0
0
0
0
0
0
0
0
0
0
0
0
0
0
0
0
0
0
0
0
0
0
0
0
0
0
0
0
0
0
0
0
0
0
0
0
0
0
0
0
0
0
0
0
0
0
0
0
0
0
0
0
0
0
0
0
0
0
0
0
0
0
0
0
0
0
0
0
0
0
0
0
0
0
0
0
0
0
0
0
0
0
0
0
0
0
0
0
0
0
0
0
0
0
0
0
0
0
0
0
0
0

SCALARS phenot double
LOOKUP_TABLE default
7
7
7
7
7
7
7
7
7
7
7
7
7
7
7
7
7
7
7
7
7
7
7
7
7
7
7
7
7
7
7
7
7
7
7
7
7
7
7
7
7
7
7
7
7
7
7
7
7
7
7
7
7
7
7
7
7
7
7
7
7
7
7
7
7
7
7
7
7
7
7
7
7
7
7
7
7
7
7
7
7
7
7
7
7
7
7
7
7
7
7
7
7
7
7
7
7
7
7
7
7
7
7
7
7
7
7
7
7
7
7
7
7
7
7
7
7
7
7
7
7
7
7
7
7
7
7
7
7
7
7
7
7
7
7
7
7
7
7
7
7

SCALARS cont_pheno double
LOOKUP_TABLE default
0.5
0.5
0.5
0.5
0.5
0.5
0.5
0.45
0.45
0.45
0.45
0.5
0.5
0.5
0.5
0.5
0.5
0.5
0.5
0.5
0.5
0.5
0.5
0.5
0.5
0.5
0.5
0.5
0.5
0.45
0.45
0.5
0.5
0.5
0.5
0.5
0.5
0.5
0.5
0.5
0.5
0.5
0.5
0.5
0.5
0.45
0.5
0.45
0.45
0.45
0.5
0.45
0.5
0.5
0.5
0.5
0.5
0.5
0.45
0.5
0.5
0.5
0.5
0.5
0.45
0.5
0.5
0.5
0.45
0.45
0.45
0.5
0.5
0.5
0.5
0.5
0.5
0.45
0.45
0.5
0.45
0.5
0.45
0.5
0.5
0.5
0.5
0.5
0.5
0.5
0.45
0.5
0.5
0.5
0.5
0.5
0.5
0.5
0.5
0.5
0.5
0.5
0.5
0.5
0.5
0.45
0.45
0.5
0.5
0.5
0.5
0.5
0.5
0.45
0.5
0.5
0.5
0.5
0.5
0.5
0.5
0.5
0.5
0.5
0.5
0.5
0.5
0.5
0.5
0.5
0.5
0.45
0.5
0.5
0.5
0.5
0.5
0.5
0.5
0.5
0.5

SCALARS name double
LOOKUP_TABLE default
81
45
90
19
0
23
5
108
48
97
39
115
74
118
80
103
117
38
78
29
79
50
66
112
105
109
65
32
104
44
30
18
33
11
37
12
16
116
8
28
17
82
53
100
95
140
41
56
85
42
128
59
40
34
126
9
36
136
73
130
62
27
107
124
55
4
47
119
52
114
61
96
67
1
135
110
87
92
69
111
137
71
14
94
99
51
68
122
26
102
24
134
131
13
120
138
86
35
20
25
21
3
77
89
125
2
76
15
93
121
72
132
43
6
70
83
46
31
7
10
133
64
54
88
60
129
98
75
57
123
127
106
22
63
139
49
58
113
84
101
91

SCALARS interaction_phenotype double
LOOKUP_TABLE default
0
0
0
0
0
0
0
0
0
0
0
0
0
0
0
0
0
0
0
0
0
0
0
0
0
0
0
0
0
0
0
0
0
0
0
0
0
0
0
0
0
0
0
0
0
0
0
0
0
0
0
0
0
0
0
0
0
0
0
0
0
0
0
0
0
0
0
0
0
0
0
0
0
0
0
0
0
0
0
0
0
0
0
0
0
0
0
0
0
0
0
0
0
0
0
0
0
0
0
0
0
0
0
0
0
0
0
0
0
0
0
0
0
0
0
0
0
0
0
0
0
0
0
0
0
0
0
0
0
0
0
0
0
0
0
0
0
0
0
0
0

SCALARS vessel_interaction double
LOOKUP_TABLE default
0
0
0
0
0
0
0
0
0
0
0
0
0
0
0
0
0
0
0
0
0
0
0
0
0
0
0
0
0
0
0
0
0
0
0
0
0
0
0
0
0
0
0
0
0
0
0
0
0
0
0
0
0
0
0
0
0
0
0
0
0
0
0
0
0
0
0
0
0
0
0
0
0
0
0
0
0
0
0
0
0
0
0
0
0
0
0
0
0
0
0
0
0
0
0
0
0
0
0
0
0
0
0
0
0
0
0
0
0
0
0
0
0
0
0
0
0
0
0
0
0
0
0
0
0
0
0
0
0
0
0
0
0
0
0
0
0
0
0
0
0

SCALARS is_follower double
LOOKUP_TABLE default
1
1
1
1
1
1
1
1
1
1
1
1
1
1
1
1
1
1
1
1
1
1
1
1
1
1
1
1
1
1
1
1
1
1
1
1
1
1
1
1
1
1
1
1
1
1
1
1
1
1
1
1
1
1
1
1
1
1
1
1
1
1
1
1
1
1
1
1
1
1
1
1
1
1
1
1
1
1
1
1
1
1
1
1
1
1
1
1
1
1
1
1
1
1
1
1
1
1
1
1
1
1
1
1
1
1
1
1
1
1
1
1
1
1
1
1
1
1
1
1
1
1
1
1
1
1
1
1
1
1
1
1
1
1
1
1
1
1
1
1
1

SCALARS polarised double
LOOKUP_TABLE default
0
0
0
0
0
0
0
0
0
0
0
0
0
0
0
0
0
0
0
0
0
0
0
0
0
0
0
0
0
0
0
0
0
0
0
0
0
0
0
0
0
0
0
0
0
0
0
0
0
0
0
0
0
0
0
0
0
0
0
0
0
0
0
0
0
0
0
0
0
0
0
0
0
0
0
0
0
0
0
0
0
0
0
0
0
0
0
0
0
0
0
0
0
0
0
0
0
0
0
0
0
0
0
0
0
0
0
0
0
0
0
0
0
0
0
0
0
0
0
0
0
0
0
0
0
0
0
0
0
0
0
0
0
0
0
0
0
0
0
0
0

