# vtk DataFile Version 2.0
Unstructured grid legacy vtk file with point scalar data
ASCII

DATASET UNSTRUCTURED_GRID
POINTS 212 double
334.538 339.662 406.713
335.556 361.814 407.192
334.084 369.69 407.096
338.664 344.284 401.008
344.458 340.685 397.789
342.483 336.718 402.911
345.438 340.911 405.944
340.168 343.561 408.642
342.938 349.983 382.487
341.021 354.51 393.292
341.083 352.323 402.259
337.085 349.342 408.999
343.223 353.459 411.366
345.678 347.684 407.036
341.599 363.031 396.324
343.076 360.744 404.492
341.133 360.358 411.539
338.313 360.572 418.225
344.897 364.922 419.463
342.859 375.123 389.391
337.715 367.073 400.917
344.837 366.48 410.669
339.008 374.714 411.716
338.822 367.197 413.705
344.96 381.362 394.692
340.485 378.347 398.582
340.735 379.683 405.231
344.38 380.795 414.15
352.818 333.294 381.302
350.239 335.416 401.186
350.537 339.983 384.435
348.687 341.143 391.628
354.697 345.623 389.638
351.384 342.435 398.192
351.933 336.469 411.881
352.873 344.602 410.931
351.036 339.02 406.604
351.197 341.885 420.299
354.981 352.499 369.966
354.2 352.406 378.604
347.777 349.299 393.443
349.33 353.944 385.895
348.875 346.496 401.45
353.719 353.934 396.855
348.815 355.369 405.011
350.964 353.117 413.582
353.413 350.161 405.927
346.244 346.369 414.991
348.265 349.778 421.95
355.379 365.306 373.906
350.144 360.188 378.176
354.591 360.009 384.461
347.715 361.148 390.111
346.945 357.392 397.966
349.73 365.324 397.632
351.231 362.178 404.954
350.665 361.588 414.25
355.137 357.194 409.677
352.816 364.396 422.6
354.32 358.541 421.348
354.61 366.904 381.765
353.448 374.721 380.618
348.009 369.102 385.993
350.208 372.765 393.05
354.191 365.944 390.64
345.737 368.334 403.266
351.904 368.503 409.867
346.568 374.853 408.557
354.004 373.96 405.332
345.738 372.648 416.64
353.533 369.943 417.483
349.063 370.133 424.072
348.839 374.674 430.893
349.483 380.285 389.027
347.907 376.318 400.432
351.573 384.117 396.669
351.776 381.906 405.376
352.79 377.988 413.378
350.21 383.943 419.746
364.866 343.675 379.26
359.082 340.033 384.727
361.943 342.143 392.657
356.127 338.25 395.943
357.105 340.57 404.625
363.298 344.588 400.832
359.108 341.633 414.042
357.448 352.576 386.177
364.408 347.819 386.663
359.912 350.201 391.771
356.152 346.988 400.268
361.685 352.385 403.748
360.752 350.459 397.207
360.916 346.04 408.184
358.188 351.565 410.077
355.75 348.691 418.973
362.771 349.085 415.706
362.205 348.619 423.927
360.353 358.704 372.323
361.807 363.101 384.001
361.77 356.221 380.158
364.158 356.46 388.112
356.542 358.779 391.758
362.812 364.422 392.173
357.534 363.383 398.848
362.568 357.274 396.135
356.88 357.248 403.3
363.732 356.21 411.345
358.82 361.753 409.856
358.564 360.732 416.681
362.156 364.774 423.025
361.839 374.184 382.204
363.283 372.947 390.581
358.545 370.056 387.571
363.651 370.114 396.919
357.027 370.704 396.722
359.953 368.249 404.291
359.296 368.932 411.381
361.766 368.345 417.278
362.06 379.541 376.775
355.934 377.687 390.055
361.535 381.643 386.337
358.479 375.663 393.484
363.611 375.481 402.466
362.922 377.419 396.12
355.965 378.198 399.17
360.373 382.988 404.494
360.449 384.549 396.026
360.224 376.461 409.792
357.484 385.695 379.631
367.8 339.507 370.07
373 344.191 381.627
370.719 337.44 377.942
367.925 339.985 386.931
370.324 338.792 395.356
370.882 344.135 401.761
373.153 336.888 404.156
366.075 340.615 407.523
374.881 339.811 411.661
369.374 344.769 413.766
368.248 351.605 378.965
373.001 347.167 388.614
367.803 346.709 394.453
371.797 354.259 385.354
370.676 353.684 393.375
372.437 355.077 402.135
367.368 351.961 399.485
367.288 349.657 407.024
374.684 349.041 407.281
370.336 352.66 413.469
366.495 354.775 420.01
374.719 354.242 420.084
368.43 358.091 374.04
373.443 364.471 374.844
369.122 360.216 381.706
370.042 362.073 389.017
365.717 359.452 403.539
370.139 360.874 396.744
365.556 364.145 410.167
372.262 358.933 409.198
369.205 362.135 417.836
367.144 359.465 426.329
365.995 368.256 377.54
372.732 366.941 381.735
372.443 374.765 382.227
366.714 368.736 385.381
373.278 369.152 388.164
369.831 373.571 396.653
367.775 366.83 401.808
367.22 372.024 408.405
373.553 366.98 411.64
369.258 375.602 388.831
366.817 380.574 392.803
379.225 336.911 381.899
376.285 339.801 388.901
375.936 344.491 395.106
378.967 337.975 397.909
377.106 345.424 400.626
379.491 342.668 405.217
382.632 343.913 413.03
379.025 350.599 383.68
381.027 349.847 391.516
376.61 350.243 400.662
384.272 348.598 400.103
380.055 355.001 397.68
383.754 353.032 411.491
379.009 355.522 405.848
376.755 348.99 414.35
383.352 353.671 419.514
377.525 346.397 421.17
375.807 356.068 377.852
379.853 362.863 380.355
376.513 357.391 391.322
378.754 363.87 389.338
384.653 357.792 391.039
375.623 361.638 402.166
381.628 362.347 396.508
383.606 361.704 409.781
377.53 360.922 415.555
377.811 371.689 377.186
379.08 369.583 383.596
384.151 369.567 394.917
381.043 371.347 389.193
375.644 368.13 397.465
381.217 373.575 401.678
379.089 367.304 405.842
377.716 374.031 409.436
376.036 375.441 391.786
379.272 379.809 397.543
389.939 353.973 397.445
389.971 353.456 405.714
385.39 358.659 402.472
386.666 366.585 402.238

POINT_DATA 212
SCALARS radius double
LOOKUP_TABLE default
5.02621
5.02621
4.98931
5.02621
5.0053
4.18931
4.28931
4.37271
5.0053
5.04636
5.0053
4.47271
5.09809
5.02621
5.02621
5.0053
4.78931
4.88931
5.02621
5.0053
5.08931
4.67271
5.08931
4.77271
4.42621
4.52621
5.07271
5.08931
5.08931
5.0053
5.04768
5.04768
5.03939
4.57271
4.37271
5.02621
4.37271
5.07271
5.03939
5.03939
5.03939
5.0053
4.57271
5.04768
5.0053
5.02621
5.02621
5.07271
5.07271
5.04636
5.0053
5.0053
5.03653
5.03653
5.09809
5.02621
5.0053
4.28931
4.23728
4.33728
5.02621
5.02621
5.07271
5.07271
5.02621
5.09809
5.04636
5.03939
5.00492
5.08931
5.04636
5.08931
5.08931
5.02621
5.03939
5.02621
5.07271
5.0053
5.0053
5.09976
5.08931
5.03939
5.09976
5.0053
5.03939
5.0053
5.0857
5.08931
4.54768
5.00635
5.00635
4.54768
4.79749
4.79749
5.0053
5.07271
5.0053
5.0857
5.07271
5.0857
5.0857
5.00492
5.00492
5.08931
5.02621
5.08931
5.03728
4.28931
5.02621
5.02621
5.07271
4.67241
5.02621
4.67241
5.04588
5.04636
4.78931
4.78931
5.02621
4.22621
5.0053
4.22621
5.08931
4.63939
5.00492
5.07271
5.07271
5.0053
5.02621
5.04768
5.03939
5.04768
5.03939
5.02621
5.02167
5.02621
5.0053
5.02621
5.02621
5.08931
5.09976
5.07271
5.09976
5.08931
5.0053
5.08931
5.04636
5.04684
5.02621
5.0053
5.07271
5.07271
5.07271
5.02621
5.00492
5.09809
5.03939
5.09809
5.07271
5.0053
5.02621
5.04636
4.68931
5.0053
5.02621
4.68931
5.08931
5.02621
5.04636
5.0053
5.0053
4.53939
5.03939
5.09976
5.03939
5.09976
4.17271
5.03939
5.08931
5.03939
5.03939
4.17271
5.07271
5.02621
5.02621
5.02621
5.04684
5.07271
5.0053
5.02621
5.07271
5.07271
5.0053
5.0053
5.03939
5.07271
5.03939
5.07271
5.02621
4.78931
5.07271
4.78931
5.0053
5.03939
5.03939
5.02621
5.08931
5.03939
5.02621
4.92621
5.02621
5.08931

SCALARS status double
LOOKUP_TABLE default
1
2
2
1
1
1
1
1
1
1
1
1
1
1
2
1
2
2
2
1
2
2
1
2
1
1
1
1
1
1
1
1
1
1
1
1
1
1
1
1
1
1
1
1
1
1
1
1
1
1
1
1
2
2
1
1
1
1
1
1
1
1
1
1
1
1
1
1
2
1
1
1
1
2
1
2
2
2
2
1
1
1
1
1
1
1
2
1
1
1
1
1
2
2
1
1
1
2
1
2
2
2
2
1
1
1
1
1
1
1
1
2
1
2
2
1
1
1
1
1
1
1
1
1
2
1
1
2
1
1
1
1
1
1
2
1
1
1
1
1
1
1
1
1
1
1
1
1
1
1
1
1
1
1
2
1
1
1
1
1
1
1
2
1
2
2
1
1
1
1
1
1
1
1
1
1
1
1
1
1
1
1
1
1
1
1
1
1
1
1
1
1
2
1
1
1
1
1
2
2
1
2
1
1
1
1
1
1
1
1
1
1

SCALARS concentration double
LOOKUP_TABLE default
25.7568
30.7716
32.4377
27.5975
28.7497
28.7174
28.7174
28.6319
30.3355
31.0119
30.7592
28.6319
31.8294
30.4936
33.3151
33.4148
31.8489
31.8489
34.9597
35.924
32.4377
34.6742
34.5902
34.6742
37.7998
37.7998
35.8956
38.0399
28.6322
28.527
29.4839
29.5136
32.656
31.7312
29.5101
32.0098
29.5101
30.5524
34.9148
34.3094
31.7046
33.6444
31.7312
35.1973
33.8647
34.539
33.7195
30.4495
31.8077
39.2571
35.7803
37.5159
35.3433
33.7974
37.6421
37.1612
36.8664
37.3753
38.6702
38.6702
39.7433
41.1665
36.9538
38.9901
39.9834
36.1567
39.3416
38.1695
41.8538
37.182
41.7033
38.8166
38.9215
40.2951
38.6369
42.7838
42.8285
43.0659
42.4257
34.0656
31.8768
33.3747
30.4582
31.67
35.1221
32.6671
35.7506
35.5914
36.0806
35.0073
37.3843
36.0806
35.5471
35.5471
33.8662
36.4469
36.0817
40.09
42.3072
39.3859
39.6636
37.8178
42.5385
39.529
39.6863
38.3678
40.0464
37.3753
39.2115
43.2857
45.5486
45.4303
39.9834
45.4303
42.7005
42.4932
43.9465
43.9465
47.0832
44.0659
48.1183
44.0659
47.5135
49.986
43.0069
48.8251
47.9718
47.0045
45.8237
32.9384
37.1003
32.9668
33.487
34.3012
36.445
33.9707
34.0211
35.2939
36.8091
38.9061
38.2463
37.1859
40.6847
40.9072
40.7356
40.9072
38.6249
40.1852
39.8371
40.3656
42.0442
45.0051
51.242
44.4967
45.5035
41.2413
45.1695
44.3286
43.7631
45.2856
42.3972
47.6564
49.8147
51.7472
46.8644
49.8147
50.3981
46.3144
49.4368
49.6283
51.7472
49.986
34.5655
36.1254
38.325
35.2402
40.7356
37.8488
38.9441
41.542
41.5696
40.7356
41.5541
45.5018
44.5283
44.4088
40.3486
44.6619
38.9189
45.7719
51.242
44.5977
50.6472
47.725
46.9027
50.7083
50.3234
47.3984
55.8856
53.751
55.455
53.751
50.9732
55.7964
51.9776
55.6575
56.0469
58.6677
47.7385
47.7385
49.2179
56.0569

SCALARS fibres double
LOOKUP_TABLE default
0
0
0
0
0
0
0
0
0
0
0
0
0
0
0
0
0
0
0
0
0
0
0
0
0
0
0
0
0
0
0
0
0
0
0
0
0
0
0
0
0
0
0
0
0
0
0
0
0
0
0
0
0
0
0
0
0
0
0
0
0
0
0
0
0
0
0
0
0
0
0
0
0
0
0
0
0
0
0
0
0
0
0
0
0
0
0
0
0
0
0
0
0
0
0
0
0
0
0
0
0
0
0
0
0
0
0
0
0
0
0
0
0
0
0
0
0
0
0
0
0
0
0
0
0
0
0
0
0
0
0
0
0
0
0
0
0
0
0
0
0
0
0
0
0
0
0
0
0
0
0
0
0
0
0
0
0
0
0
0
0
0
0
0
0
0
0
0
0
0
0
0
0
0
0
0
0
0
0
0
0
0
0
0
0
0
0
0
0
0
0
0
0
0
0
0
0
0
0
0
0
0
0
0
0
0
0
0
0
0
0
0

SCALARS phenot double
LOOKUP_TABLE default
7
7
7
7
7
7
7
7
7
7
7
7
7
7
7
7
7
7
7
7
7
7
7
7
7
7
7
7
7
7
7
7
7
7
7
7
7
7
7
7
7
7
7
7
7
7
7
7
7
7
7
7
7
7
7
7
7
7
7
7
7
7
7
7
7
7
7
7
7
7
7
7
7
7
7
7
7
7
7
7
7
7
7
7
7
7
7
7
7
7
7
7
7
7
7
7
7
7
7
7
7
7
7
7
7
7
7
7
7
7
7
7
7
7
7
7
7
7
7
7
7
7
7
7
7
7
7
7
7
7
7
7
7
7
7
7
7
7
7
7
7
7
7
7
7
7
7
7
7
7
7
7
7
7
7
7
7
7
7
7
7
7
7
7
7
7
7
7
7
7
7
7
7
7
7
7
7
7
7
7
7
7
7
7
7
7
7
7
7
7
7
7
7
7
7
7
7
7
7
7
7
7
7
7
7
7
7
7
7
7
7
7

SCALARS cont_pheno double
LOOKUP_TABLE default
0.5
0.45
0.45
0.5
0.5
0.5
0.5
0.5
0.5
0.5
0.5
0.5
0.5
0.5
0.45
0.5
0.45
0.45
0.45
0.5
0.45
0.45
0.5
0.45
0.5
0.5
0.5
0.5
0.5
0.5
0.5
0.5
0.5
0.5
0.5
0.5
0.5
0.5
0.5
0.5
0.5
0.5
0.5
0.5
0.5
0.5
0.5
0.5
0.5
0.5
0.5
0.5
0.45
0.45
0.5
0.5
0.5
0.5
0.5
0.5
0.5
0.5
0.5
0.5
0.5
0.5
0.5
0.5
0.45
0.5
0.5
0.5
0.5
0.45
0.5
0.45
0.45
0.45
0.45
0.5
0.5
0.5
0.5
0.5
0.5
0.5
0.45
0.5
0.5
0.5
0.5
0.5
0.45
0.45
0.5
0.5
0.5
0.45
0.5
0.45
0.45
0.45
0.45
0.5
0.5
0.5
0.5
0.5
0.5
0.5
0.5
0.45
0.5
0.45
0.45
0.5
0.5
0.5
0.5
0.5
0.5
0.5
0.5
0.5
0.45
0.5
0.5
0.45
0.5
0.5
0.5
0.5
0.5
0.5
0.45
0.5
0.5
0.5
0.5
0.5
0.5
0.5
0.5
0.5
0.5
0.5
0.5
0.5
0.5
0.5
0.5
0.5
0.5
0.5
0.45
0.5
0.5
0.5
0.5
0.5
0.5
0.5
0.45
0.5
0.45
0.45
0.5
0.5
0.5
0.5
0.5
0.5
0.5
0.5
0.5
0.5
0.5
0.5
0.5
0.5
0.5
0.5
0.5
0.5
0.5
0.5
0.5
0.5
0.5
0.5
0.5
0.5
0.45
0.5
0.5
0.5
0.5
0.5
0.45
0.45
0.5
0.45
0.5
0.5
0.5
0.5
0.5
0.5
0.5
0.5
0.5
0.5

SCALARS name double
LOOKUP_TABLE default
166
108
191
81
45
207
103
203
90
19
0
23
5
181
145
33
194
148
48
74
97
39
115
195
41
204
149
128
118
117
184
80
130
201
38
105
206
152
136
29
79
50
66
167
112
109
182
78
65
104
32
158
44
30
18
37
11
142
12
208
87
185
116
16
8
28
17
82
173
100
53
95
171
140
146
85
56
42
59
40
34
126
141
9
107
36
73
62
27
124
186
205
55
196
4
47
119
52
147
160
2
114
61
96
93
178
135
209
67
110
94
92
187
199
137
71
143
197
162
99
51
210
111
202
69
68
163
14
150
122
138
169
102
26
24
134
131
13
161
120
86
35
176
165
189
192
21
168
177
157
3
125
89
77
76
156
159
1
72
43
132
70
144
83
179
200
46
31
7
10
188
133
64
54
25
88
211
129
75
170
60
20
98
180
57
174
183
123
127
151
190
15
106
22
121
154
172
139
6
175
164
198
49
155
84
101
153
113
193
91
63
58

SCALARS interaction_phenotype double
LOOKUP_TABLE default
0
0
0
0
0
0
0
0
0
0
0
0
0
0
0
0
0
0
0
0
0
0
0
0
0
0
0
0
0
0
0
0
0
0
0
0
0
0
0
0
0
0
0
0
0
0
0
0
0
0
0
0
0
0
0
0
0
0
0
0
0
0
0
0
0
0
0
0
0
0
0
0
0
0
0
0
0
0
0
0
0
0
0
0
0
0
0
0
0
0
0
0
0
0
0
0
0
0
0
0
0
0
0
0
0
0
0
0
0
0
0
0
0
0
0
0
0
0
0
0
0
0
0
0
0
0
0
0
0
0
0
0
0
0
0
0
0
0
0
0
0
0
0
0
0
0
0
0
0
0
0
0
0
0
0
0
0
0
0
0
0
0
0
0
0
0
0
0
0
0
0
0
0
0
0
0
0
0
0
0
0
0
0
0
0
0
0
0
0
0
0
0
0
0
0
0
0
0
0
0
0
0
0
0
0
0
0
0
0
0
0
0

SCALARS vessel_interaction double
LOOKUP_TABLE default
0
0
0
0
0
0
0
0
0
0
0
0
0
0
0
0
0
0
0
0
0
0
0
0
0
0
0
0
0
0
0
0
0
0
0
0
0
0
0
0
0
0
0
0
0
0
0
0
0
0
0
0
0
0
0
0
0
0
0
0
0
0
0
0
0
0
0
0
0
0
0
0
0
0
0
0
0
0
0
0
0
0
0
0
0
0
0
0
0
0
0
0
0
0
0
0
0
0
0
0
0
0
0
0
0
0
0
0
0
0
0
0
0
0
0
0
0
0
0
0
0
0
0
0
0
0
0
0
0
0
0
0
0
0
0
0
0
0
0
0
0
0
0
0
0
0
0
0
0
0
0
0
0
0
0
0
0
0
0
0
0
0
0
0
0
0
0
0
0
0
0
0
0
0
0
0
0
0
0
0
0
0
0
0
0
0
0
0
0
0
0
0
0
0
0
0
0
0
0
0
0
0
0
0
0
0
0
0
0
0
0
0

SCALARS is_follower double
LOOKUP_TABLE default
1
1
1
1
1
1
1
1
1
1
1
1
1
1
1
1
1
1
1
1
1
1
1
1
1
1
1
1
1
1
1
1
1
1
1
1
1
1
1
1
1
1
1
1
1
1
1
1
1
1
1
1
1
1
1
1
1
1
1
1
1
1
1
1
1
1
1
1
1
1
1
1
1
1
1
1
1
1
1
1
1
1
1
1
1
1
1
1
1
1
1
1
1
1
1
1
1
1
1
1
1
1
1
1
1
1
1
1
1
1
1
1
1
1
1
1
1
1
1
1
1
1
1
1
1
1
1
1
1
1
1
1
1
1
1
1
1
1
1
1
1
1
1
1
1
1
1
1
1
1
1
1
1
1
1
1
1
1
1
1
1
1
1
1
1
1
1
1
1
1
1
1
1
1
1
1
1
1
1
1
1
1
1
1
1
1
1
1
1
1
1
1
1
1
1
1
1
1
1
1
1
1
1
1
1
1
1
1
1
1
1
1

SCALARS polarised double
LOOKUP_TABLE default
0
0
0
0
0
0
0
0
0
0
0
0
0
0
0
0
0
0
0
0
0
0
0
0
0
0
0
0
0
0
0
0
0
0
0
0
0
0
0
0
0
0
0
0
0
0
0
0
0
0
0
0
0
0
0
0
0
0
0
0
0
0
0
0
0
0
0
0
0
0
0
0
0
0
0
0
0
0
0
0
0
0
0
0
0
0
0
0
0
0
0
0
0
0
0
0
0
0
0
0
0
0
0
0
0
0
0
0
0
0
0
0
0
0
0
0
0
0
0
0
0
0
0
0
0
0
0
0
0
0
0
0
0
0
0
0
0
0
0
0
0
0
0
0
0
0
0
0
0
0
0
0
0
0
0
0
0
0
0
0
0
0
0
0
0
0
0
0
0
0
0
0
0
0
0
0
0
0
0
0
0
0
0
0
0
0
0
0
0
0
0
0
0
0
0
0
0
0
0
0
0
0
0
0
0
0
0
0
0
0
0
0

