# vtk DataFile Version 2.0
Unstructured grid legacy vtk file with point scalar data
ASCII

DATASET UNSTRUCTURED_GRID
POINTS 34 double
353.021 353.135 403.655
350.841 354.013 411.917
348.117 347.406 406.692
352.251 355.901 392.312
355.064 362.859 398.29
353.124 360.013 404.676
349.465 361.558 409.141
349.454 366.876 402.946
351.707 373.687 397.418
353.016 373.824 405.7
359.451 349.381 393.592
359.189 347.728 385.659
359.188 347.168 402.143
363.942 352.45 399.815
357.6 349.797 409.776
365.296 352.476 408.095
357.999 364.05 391.423
363.992 358.75 392.493
355.945 360.093 386.235
357.924 356.063 397.817
360.37 358.777 405.738
356.309 360.268 414.065
362.283 365.947 400.847
356.924 366.365 407.558
367.833 348.286 393.719
368.361 346.105 402.596
371.657 354.501 401.488
373.584 355.324 408.923
371.901 356.317 393.171
367.431 364.046 386.754
374.302 362.58 399.106
366.283 359.586 399.805
368.807 362.175 406.576
376.007 349.049 397.523

POINT_DATA 34
SCALARS radius double
LOOKUP_TABLE default
5.09809
5.09809
5.09809
5.09809
5.09809
4.39809
4.29809
5.09809
5.09809
5.09809
5.07271
5.07271
5.0053
5.02167
5.09809
5.09809
4.59809
5.06699
4.59809
5.02167
5.08666
5.08666
5.09809
5.09809
5.07271
5.07271
5.04636
5.09809
5.07271
5.03728
5.09809
5.04636
5.09809
5.07271

SCALARS status double
LOOKUP_TABLE default
1
1
1
1
1
1
1
1
1
2
1
1
1
2
1
1
1
2
1
2
1
1
1
1
1
1
1
1
1
1
1
1
1
1

SCALARS concentration double
LOOKUP_TABLE default
34.8841
34.1486
31.4797
35.2488
38.7217
36.1598
36.1598
37.7052
40.0813
41.0234
35.3646
34.5724
34.7349
38.4437
34.8947
38.6127
39.559
41.2083
39.559
37.2095
39.3465
38.4057
42.7689
40.7864
37.3151
36.8274
41.4465
42.5522
42.303
45.1004
46.7943
42.438
44.3902
40.1272

SCALARS fibres double
LOOKUP_TABLE default
0
0
0
0
0
0
0
0
0
0
0
0
0
0
0
0
0
0
0
0
0
0
0
0
0
0
0
0
0
0
0
0
0
0

SCALARS phenot double
LOOKUP_TABLE default
7
7
7
7
7
7
7
7
7
7
7
7
7
7
7
7
7
7
7
7
7
7
7
7
7
7
7
7
7
7
7
7
7
7

SCALARS cont_pheno double
LOOKUP_TABLE default
0.5
0.5
0.5
0.5
0.5
0.5
0.5
0.5
0.5
0.45
0.5
0.5
0.5
0.45
0.5
0.5
0.5
0.45
0.5
0.45
0.5
0.5
0.5
0.5
0.5
0.5
0.5
0.5
0.5
0.5
0.5
0.5
0.5
0.5

SCALARS name double
LOOKUP_TABLE default
0
5
23
19
18
33
11
28
16
14
27
29
9
24
4
21
8
2
32
30
1
12
7
17
26
13
20
3
15
6
22
31
10
25

SCALARS interaction_phenotype double
LOOKUP_TABLE default
0
0
0
0
0
0
0
0
0
0
0
0
0
0
0
0
0
0
0
0
0
0
0
0
0
0
0
0
0
0
0
0
0
0

SCALARS vessel_interaction double
LOOKUP_TABLE default
0
0
0
0
0
0
0
0
0
0
0
0
0
0
0
0
0
0
0
0
0
0
0
0
0
0
0
0
0
0
0
0
0
0

SCALARS is_follower double
LOOKUP_TABLE default
1
1
1
1
1
1
1
1
1
1
1
1
1
1
1
1
1
1
1
1
1
1
1
1
1
1
1
1
1
1
1
1
1
1

SCALARS polarised double
LOOKUP_TABLE default
0
0
0
0
0
0
0
0
0
0
0
0
0
0
0
0
0
0
0
0
0
0
0
0
0
0
0
0
0
0
0
0
0
0

