# vtk DataFile Version 2.0
Unstructured grid legacy vtk file with point scalar data
ASCII

DATASET UNSTRUCTURED_GRID
POINTS 29 double
353.513 354.434 402.933
351.624 354.443 411.204
348.906 347.817 406.829
353.954 355.759 393.934
355.088 361.494 398.987
352.336 365.277 401.805
350.251 361.394 407.162
352.027 371.266 398.322
352.452 372.765 406.575
360.201 350.349 393.9
360.252 348.168 401.594
357.332 348.35 408.919
365.418 352.257 407.511
357.146 362.862 390.941
364.036 359.386 393.872
360.288 356.318 399.625
362.183 365.112 399.938
361.065 358.999 406.393
356.978 360.436 412.885
357.401 366.359 406.939
372.826 355.215 392.593
367.992 348.853 393.906
367.8 346.229 401.874
374.836 349.472 398.6
368.413 355.525 400.299
373.62 355.033 407.401
366.478 363.275 387.422
373.939 363.416 399.585
368.659 362.099 405.956

POINT_DATA 29
SCALARS radius double
LOOKUP_TABLE default
5.09809
5.09809
5.09809
5.09809
4.19809
4.19809
5.03728
5.09809
5.09809
5.0053
5.0053
5.09809
5.09809
5.03728
5.06699
5.06699
5.09809
5.08666
5.08666
5.09809
5.07271
5.07271
5.07271
5.07271
5.09809
5.09809
5.03728
5.09809
5.09809

SCALARS status double
LOOKUP_TABLE default
1
1
1
1
1
1
1
1
1
1
1
1
1
1
2
2
1
1
1
1
1
1
1
1
1
1
1
1
1

SCALARS concentration double
LOOKUP_TABLE default
37.129
34.9205
34.9205
37.129
37.129
37.129
36.7133
39.4567
40.7269
36.5693
36.5693
34.115
40.9011
38.6713
40.6326
40.6326
41.9429
39.8125
38.6136
40.7085
39.8607
39.8607
38.4461
38.4461
40.6326
40.9011
41.8417
44.385
44.385

SCALARS fibres double
LOOKUP_TABLE default
0
0
0
0
0
0
0
0
0
0
0
0
0
0
0
0
0
0
0
0
0
0
0
0
0
0
0
0
0

SCALARS phenot double
LOOKUP_TABLE default
7
7
7
7
7
7
7
7
7
7
7
7
7
7
7
7
7
7
7
7
7
7
7
7
7
7
7
7
7

SCALARS cont_pheno double
LOOKUP_TABLE default
0.5
0.5
0.5
0.5
0.5
0.5
0.5
0.5
0.5
0.5
0.5
0.5
0.5
0.5
0.45
0.45
0.5
0.5
0.5
0.5
0.5
0.5
0.5
0.5
0.5
0.5
0.5
0.5
0.5

SCALARS name double
LOOKUP_TABLE default
0
5
23
19
18
28
11
16
14
27
9
4
21
8
2
24
7
1
12
17
15
26
13
25
20
3
6
22
10

SCALARS interaction_phenotype double
LOOKUP_TABLE default
0
0
0
0
0
0
0
0
0
0
0
0
0
0
0
0
0
0
0
0
0
0
0
0
0
0
0
0
0

SCALARS vessel_interaction double
LOOKUP_TABLE default
0
0
0
0
0
0
0
0
0
0
0
0
0
0
0
0
0
0
0
0
0
0
0
0
0
0
0
0
0

SCALARS is_follower double
LOOKUP_TABLE default
1
1
1
1
1
1
1
1
1
1
1
1
1
1
1
1
1
1
1
1
1
1
1
1
1
1
1
1
1

SCALARS polarised double
LOOKUP_TABLE default
0
0
0
0
0
0
0
0
0
0
0
0
0
0
0
0
0
0
0
0
0
0
0
0
0
0
0
0
0

