# vtk DataFile Version 2.0
Unstructured grid legacy vtk file with point scalar data
ASCII

DATASET UNSTRUCTURED_GRID
POINTS 86 double
344.809 342.23 396.889
345.663 343.961 403.298
345.374 353.215 401.993
341.845 348.302 408.081
342.502 365.076 410.113
345.466 369 403.438
344.642 375.398 390.299
352.216 339.492 405.163
350.217 353.157 386.065
348.681 353.728 395.015
355.407 351.508 392.169
351.746 348.41 401.771
350.035 346.246 409.666
348.112 354.022 410.568
350.339 347.905 417.193
354.477 360.934 384.25
347.561 360.805 404.693
354.926 357.282 399.807
349.802 362.072 413.458
354.664 358.041 408.049
355.02 362.797 421.157
352.812 374.296 392.453
352.175 365.786 398.334
352.61 366.866 407.094
354.635 369.022 414.761
347.434 371.571 411.192
347.075 369.107 418.155
346.703 375.89 398.479
352.672 378.459 403.931
353.137 379.561 397.9
352.562 376.979 410.723
351.302 381.49 417.874
356.978 339.499 383.78
364.669 343.159 385.584
356.77 342.994 391.168
359.065 342.883 402.251
361.176 345.127 410.138
356.548 351.034 378.994
362.232 348.694 390.111
358.798 354.282 385.797
364.047 354.056 395.421
358.362 349.08 397.936
365.403 348.41 401.077
359.071 351.326 405.439
356.956 352.274 413.276
364.104 350.435 416.536
361.522 358.7 379.751
364.334 358.353 388.595
355.742 359.519 392.474
364.619 357.18 404.241
361.647 360.986 397.83
359.428 364.134 405.143
358.553 361.062 413.66
358.867 366.215 389.222
360.421 374.933 388.772
360.211 369.006 397.867
357.914 372.67 404.839
359.487 376.783 396.965
370.706 343.594 404.442
369.287 347.561 392.874
371.156 354.902 400.422
367.52 350.749 408.277
374.726 352.345 413.136
368.71 360.705 382.169
366.771 363.916 393.027
372.277 356.879 392.895
372.448 365.065 387.473
374.501 365.294 395.145
367.901 364.719 399.523
371.511 362.371 403.637
366.03 357.996 412.817
372.413 357.84 408.275
366.301 368.534 381.642
365.635 369.335 388.652
367.982 372.133 395.05
365.765 369.862 404.66
371.959 366.74 408.933
377.625 340.149 383.213
376.155 340.851 391.984
377.077 349.757 391.051
375.787 347.856 399.449
378.191 347.144 407.528
380.236 355.456 407.507
380.333 359.246 393.682
378.051 360.764 401.52
379.469 369.537 400.519

POINT_DATA 86
SCALARS radius double
LOOKUP_TABLE default
4.8053
4.9053
5.0053
5.0053
5.04636
5.09809
5.0053
5.04636
5.04636
5.04636
5.08931
5.0053
5.0053
5.09809
5.0053
5.09809
5.04636
5.03653
5.0053
5.0053
5.08666
5.0053
5.09809
5.04636
5.04636
4.67271
4.77271
5.0053
4.27271
4.37271
5.0053
5.0053
5.02621
5.08931
5.08931
5.0053
5.04636
5.08931
5.08931
5.0857
5.0053
5.08931
5.02167
5.03653
5.0053
5.04636
5.02167
5.0857
5.03653
5.08666
5.04588
5.04636
5.0053
5.04636
5.04636
5.09749
5.0053
5.0053
5.07271
5.07271
5.04636
5.04636
5.04636
5.04636
5.04588
5.07271
5.04636
5.04636
4.52621
4.52621
5.04636
5.0053
4.84636
4.74636
5.07271
5.04636
5.0053
5.03939
5.03939
5.08931
5.08931
5.08931
5.04636
5.0053
5.07271
5.07271

SCALARS status double
LOOKUP_TABLE default
1
1
1
1
1
1
1
1
1
1
1
1
1
1
1
1
1
2
1
1
1
1
1
1
1
1
1
1
2
2
2
2
1
1
1
1
1
1
1
2
1
1
2
2
1
1
2
2
2
1
2
1
1
1
1
2
2
1
1
1
1
1
1
1
2
1
2
1
1
1
1
1
1
1
1
1
1
1
1
1
1
1
1
1
1
1

SCALARS concentration double
LOOKUP_TABLE default
30.3317
30.3317
33.2113
30.1613
34.612
37.6338
37.6255
30.0282
33.5149
34.7507
35.7928
33.2113
30.1613
33.5408
35.2294
37.6785
34.9252
37.3822
36.42
38.0216
38.8229
41.6385
40.1064
39.2392
41.2531
36.8396
36.8396
37.6255
42.4548
42.4548
42.8661
42.2138
31.3881
34.5708
35.573
33.0318
34.9929
35.1426
35.573
39.2498
40.2114
35.7928
36.908
36.1879
35.2294
37.8461
41.043
39.2498
38.1399
40.4972
41.4616
43.5792
38.0216
41.1366
44.956
41.4616
42.7465
41.6385
36.6613
37.177
42.104
38.8315
42.8154
44.951
41.4616
42.7612
44.951
48.6173
45.4736
45.4736
41.8886
46.6001
44.951
44.951
46.4154
43.5792
46.6001
37.2127
37.2127
40.438
40.6115
40.6115
45.6361
47.43
46.9141
50.7864

SCALARS fibres double
LOOKUP_TABLE default
0
0
0
0
0
0
0
0
0
0
0
0
0
0
0
0
0
0
0
0
0
0
0
0
0
0
0
0
0
0
0
0
0
0
0
0
0
0
0
0
0
0
0
0
0
0
0
0
0
0
0
0
0
0
0
0
0
0
0
0
0
0
0
0
0
0
0
0
0
0
0
0
0
0
0
0
0
0
0
0
0
0
0
0
0
0

SCALARS phenot double
LOOKUP_TABLE default
7
7
7
7
7
7
7
7
7
7
7
7
7
7
7
7
7
7
7
7
7
7
7
7
7
7
7
7
7
7
7
7
7
7
7
7
7
7
7
7
7
7
7
7
7
7
7
7
7
7
7
7
7
7
7
7
7
7
7
7
7
7
7
7
7
7
7
7
7
7
7
7
7
7
7
7
7
7
7
7
7
7
7
7
7
7

SCALARS cont_pheno double
LOOKUP_TABLE default
0.5
0.5
0.5
0.5
0.5
0.5
0.5
0.5
0.5
0.5
0.5
0.5
0.5
0.5
0.5
0.5
0.5
0.45
0.5
0.5
0.5
0.5
0.5
0.5
0.5
0.5
0.5
0.5
0.45
0.45
0.45
0.45
0.5
0.5
0.5
0.5
0.5
0.5
0.5
0.45
0.5
0.5
0.45
0.45
0.5
0.5
0.45
0.45
0.45
0.5
0.45
0.5
0.5
0.5
0.5
0.45
0.45
0.5
0.5
0.5
0.5
0.5
0.5
0.5
0.45
0.5
0.45
0.5
0.5
0.5
0.5
0.5
0.5
0.5
0.5
0.5
0.5
0.5
0.5
0.5
0.5
0.5
0.5
0.5
0.5
0.5

SCALARS name double
LOOKUP_TABLE default
45
81
0
23
39
28
74
38
50
19
79
66
78
5
65
32
33
30
11
37
12
16
18
17
53
82
48
41
56
85
42
59
34
40
80
9
36
29
62
73
35
27
24
55
4
47
52
2
44
1
61
71
67
8
51
69
14
68
13
26
20
21
3
77
76
15
6
49
31
84
43
72
70
83
46
7
10
64
54
60
25
75
57
22
63
58

SCALARS interaction_phenotype double
LOOKUP_TABLE default
0
0
0
0
0
0
0
0
0
0
0
0
0
0
0
0
0
0
0
0
0
0
0
0
0
0
0
0
0
0
0
0
0
0
0
0
0
0
0
0
0
0
0
0
0
0
0
0
0
0
0
0
0
0
0
0
0
0
0
0
0
0
0
0
0
0
0
0
0
0
0
0
0
0
0
0
0
0
0
0
0
0
0
0
0
0

SCALARS vessel_interaction double
LOOKUP_TABLE default
0
0
0
0
0
0
0
0
0
0
0
0
0
0
0
0
0
0
0
0
0
0
0
0
0
0
0
0
0
0
0
0
0
0
0
0
0
0
0
0
0
0
0
0
0
0
0
0
0
0
0
0
0
0
0
0
0
0
0
0
0
0
0
0
0
0
0
0
0
0
0
0
0
0
0
0
0
0
0
0
0
0
0
0
0
0

SCALARS is_follower double
LOOKUP_TABLE default
1
1
1
1
1
1
1
1
1
1
1
1
1
1
1
1
1
1
1
1
1
1
1
1
1
1
1
1
1
1
1
1
1
1
1
1
1
1
1
1
1
1
1
1
1
1
1
1
1
1
1
1
1
1
1
1
1
1
1
1
1
1
1
1
1
1
1
1
1
1
1
1
1
1
1
1
1
1
1
1
1
1
1
1
1
1

SCALARS polarised double
LOOKUP_TABLE default
0
0
0
0
0
0
0
0
0
0
0
0
0
0
0
0
0
0
0
0
0
0
0
0
0
0
0
0
0
0
0
0
0
0
0
0
0
0
0
0
0
0
0
0
0
0
0
0
0
0
0
0
0
0
0
0
0
0
0
0
0
0
0
0
0
0
0
0
0
0
0
0
0
0
0
0
0
0
0
0
0
0
0
0
0
0

