# vtk DataFile Version 2.0
Unstructured grid legacy vtk file with point scalar data
ASCII

DATASET UNSTRUCTURED_GRID
POINTS 10 double
355.408 356.545 399.406
352.038 358.287 406.972
362.879 352.719 401.038
359.791 347.589 406.224
363.769 359.583 390.192
355.847 362.506 393.742
355.921 364.357 402.378
361.208 359.274 405.98
368.789 355.051 406.02
366.324 359.308 398.56

POINT_DATA 10
SCALARS radius double
LOOKUP_TABLE default
5.08666
5.08666
5.09809
5.09809
5.03728
5.03728
5.08666
5.02287
5.03728
5.08666

SCALARS status double
LOOKUP_TABLE default
1
1
1
1
1
1
1
1
1
1

SCALARS concentration double
LOOKUP_TABLE default
36.8838
36.301
36.7462
36.7462
41.2827
39.0978
39.8896
39.728
40.6014
40.5739

SCALARS fibres double
LOOKUP_TABLE default
0
0
0
0
0
0
0
0
0
0

SCALARS phenot double
LOOKUP_TABLE default
7
7
7
7
7
7
7
7
7
7

SCALARS cont_pheno double
LOOKUP_TABLE default
0.5
0.5
0.5
0.5
0.5
0.5
0.5
0.5
0.5
0.5

SCALARS name double
LOOKUP_TABLE default
0
5
9
4
6
8
7
1
3
2

SCALARS interaction_phenotype double
LOOKUP_TABLE default
0
0
0
0
0
0
0
0
0
0

SCALARS vessel_interaction double
LOOKUP_TABLE default
0
0
0
0
0
0
0
0
0
0

SCALARS is_follower double
LOOKUP_TABLE default
1
1
1
1
1
1
1
1
1
1

SCALARS polarised double
LOOKUP_TABLE default
0
0
0
0
0
0
0
0
0
0

