# vtk DataFile Version 2.0
Unstructured grid legacy vtk file with point scalar data
ASCII

DATASET UNSTRUCTURED_GRID
POINTS 60 double
344.626 347.404 406.994
344.172 365.961 408.012
348.313 344.186 400.501
350.571 341.226 408.252
350.028 353.734 385.874
350.678 351.623 402.76
348.892 353.994 410.593
351.685 355.648 393.807
348.643 360.193 404.469
354.888 358.862 400.88
350.052 361.885 412.449
354.733 365.203 405.877
349.18 369.31 401.922
354.715 373.099 395.874
346.763 375.016 395.524
355.483 367.922 413.562
346.986 368.172 416.272
353.869 378.663 401.715
353.684 376.983 411.215
351.371 380.322 415.88
356.705 340.607 383.761
356.786 345.504 400.805
357.966 351.21 384.101
363.511 345.941 387.289
359.575 350.197 393.473
363.937 350.187 400.737
358.255 353.041 403.816
359.491 348.05 408.771
355.812 351.903 415.199
365.027 350.869 415.593
355.748 359.756 384.801
363.75 358.556 380.974
362.91 356.286 388.51
359.72 364.953 390.047
359.985 358.974 395.525
363.752 358.763 403.476
356.646 358.315 409.313
357.175 360.425 417.362
360.566 373.054 389.86
356.164 365.859 397.669
362.817 367.524 402.927
356.096 372.508 406.123
370.333 345.255 402.457
368.406 347.2 394.512
374.05 354.447 392.651
371.521 355.117 401.054
366.562 355.356 395.427
367.476 352.019 407.504
374.004 354.554 411.461
367.154 363.541 387.255
373.639 364.949 392.662
369.247 362.595 399.393
372.09 363.199 407.627
366.619 359.003 411.992
365.839 368.817 394.653
376.338 346.321 391.156
376.749 349.263 398.754
378.55 359.473 397.025
376.556 363.167 401.905
378.045 356.468 405.503

POINT_DATA 60
SCALARS radius double
LOOKUP_TABLE default
5.04636
5.04636
5.04636
5.04636
5.04636
5.04636
5.09809
5.04636
5.04636
5.03653
5.0053
5.04636
5.09809
5.04636
5.04636
5.04636
5.0053
5.0053
4.3053
4.3053
5.02621
5.0053
5.08931
5.08931
5.07271
5.02167
5.03653
5.04636
5.04636
5.04636
5.09809
5.02167
5.02167
5.04636
5.0857
5.08666
5.04636
5.08666
5.04636
5.09809
5.09809
5.0053
5.07271
5.07271
5.07271
5.04636
5.0053
5.04636
4.84636
5.03728
5.04636
5.07271
5.04636
5.04636
5.07271
5.02621
5.02621
4.6053
4.7053
4.84636

SCALARS status double
LOOKUP_TABLE default
1
1
1
1
1
1
1
1
1
2
1
1
1
1
1
1
1
2
2
2
1
1
1
1
1
2
2
1
1
1
1
2
2
1
2
1
1
1
1
1
1
2
1
1
1
1
1
1
1
1
1
1
1
1
1
1
1
1
1
1

SCALARS concentration double
LOOKUP_TABLE default
31.4797
36.1598
34.8841
31.4797
35.2488
34.8841
34.1486
35.2488
36.1598
37.2095
36.1598
40.7864
37.7052
40.0813
40.0813
40.7864
36.1598
41.0234
41.0234
41.0234
34.5724
34.7349
34.5724
34.5724
35.3646
38.4437
37.2095
34.8947
34.8947
38.6127
39.559
41.2083
41.2083
39.559
37.2095
39.3465
36.1598
38.4057
39.559
38.7217
42.7689
41.0234
36.8274
37.3151
42.303
41.4465
42.438
38.6127
42.5522
45.1004
46.7943
42.438
44.3902
44.3902
42.438
40.1272
40.1272
46.7943
46.7943
42.5522

SCALARS fibres double
LOOKUP_TABLE default
0
0
0
0
0
0
0
0
0
0
0
0
0
0
0
0
0
0
0
0
0
0
0
0
0
0
0
0
0
0
0
0
0
0
0
0
0
0
0
0
0
0
0
0
0
0
0
0
0
0
0
0
0
0
0
0
0
0
0
0

SCALARS phenot double
LOOKUP_TABLE default
7
7
7
7
7
7
7
7
7
7
7
7
7
7
7
7
7
7
7
7
7
7
7
7
7
7
7
7
7
7
7
7
7
7
7
7
7
7
7
7
7
7
7
7
7
7
7
7
7
7
7
7
7
7
7
7
7
7
7
7

SCALARS cont_pheno double
LOOKUP_TABLE default
0.5
0.5
0.5
0.5
0.5
0.5
0.5
0.5
0.5
0.45
0.5
0.5
0.5
0.5
0.5
0.5
0.5
0.45
0.45
0.45
0.5
0.5
0.5
0.5
0.5
0.45
0.45
0.5
0.5
0.5
0.5
0.45
0.45
0.5
0.45
0.5
0.5
0.5
0.5
0.5
0.5
0.45
0.5
0.5
0.5
0.5
0.5
0.5
0.5
0.5
0.5
0.5
0.5
0.5
0.5
0.5
0.5
0.5
0.5
0.5

SCALARS name double
LOOKUP_TABLE default
23
39
45
38
50
0
5
19
33
30
11
17
28
16
41
53
48
56
42
59
34
9
29
40
27
24
55
36
4
47
32
52
2
8
44
1
37
12
51
18
7
14
13
26
15
20
35
21
3
6
49
31
10
43
46
54
25
22
58
57

SCALARS interaction_phenotype double
LOOKUP_TABLE default
0
0
0
0
0
0
0
0
0
0
0
0
0
0
0
0
0
0
0
0
0
0
0
0
0
0
0
0
0
0
0
0
0
0
0
0
0
0
0
0
0
0
0
0
0
0
0
0
0
0
0
0
0
0
0
0
0
0
0
0

SCALARS vessel_interaction double
LOOKUP_TABLE default
0
0
0
0
0
0
0
0
0
0
0
0
0
0
0
0
0
0
0
0
0
0
0
0
0
0
0
0
0
0
0
0
0
0
0
0
0
0
0
0
0
0
0
0
0
0
0
0
0
0
0
0
0
0
0
0
0
0
0
0

SCALARS is_follower double
LOOKUP_TABLE default
1
1
1
1
1
1
1
1
1
1
1
1
1
1
1
1
1
1
1
1
1
1
1
1
1
1
1
1
1
1
1
1
1
1
1
1
1
1
1
1
1
1
1
1
1
1
1
1
1
1
1
1
1
1
1
1
1
1
1
1

SCALARS polarised double
LOOKUP_TABLE default
0
0
0
0
0
0
0
0
0
0
0
0
0
0
0
0
0
0
0
0
0
0
0
0
0
0
0
0
0
0
0
0
0
0
0
0
0
0
0
0
0
0
0
0
0
0
0
0
0
0
0
0
0
0
0
0
0
0
0
0

