# vtk DataFile Version 2.0
Unstructured grid legacy vtk file with point scalar data
ASCII

DATASET UNSTRUCTURED_GRID
POINTS 5 double
363.007 351.755 402.506
357.674 359.893 399.06
361.012 360.148 407.259
367.293 354.455 407.051
365.862 357.702 397.962

POINT_DATA 5
SCALARS radius double
LOOKUP_TABLE default
4.33728
5.0685
5.02287
4.43728
5.08666

SCALARS status double
LOOKUP_TABLE default
1
1
1
1
1

SCALARS concentration double
LOOKUP_TABLE default
39.9665
38.6751
39.8802
39.9665
41.1145

SCALARS fibres double
LOOKUP_TABLE default
0
0
0
0
0

SCALARS phenot double
LOOKUP_TABLE default
7
7
7
7
7

SCALARS cont_pheno double
LOOKUP_TABLE default
0.5
0.5
0.5
0.5
0.5

SCALARS name double
LOOKUP_TABLE default
4
0
1
3
2

SCALARS interaction_phenotype double
LOOKUP_TABLE default
0
0
0
0
0

SCALARS vessel_interaction double
LOOKUP_TABLE default
0
0
0
0
0

SCALARS is_follower double
LOOKUP_TABLE default
1
1
1
1
1

SCALARS polarised double
LOOKUP_TABLE default
0
0
0
0
0

