# vtk DataFile Version 2.0
Unstructured grid legacy vtk file with point scalar data
ASCII

DATASET UNSTRUCTURED_GRID
POINTS 52 double
344.809 347.695 407.315
343.82 365.887 407.663
350.772 341.022 407.748
351 354.424 387.758
352.417 352.448 403.163
349.833 346.817 401.642
348.911 354.196 410.11
354.689 360.25 384.913
352.694 356.161 393.388
355.496 364.518 398.395
349.783 360.781 404.269
350.642 361.114 412.239
348.967 369.13 401.692
355.121 372.523 396.539
346.928 374.834 395.265
355.246 374.117 404.591
347.678 366.449 414.656
355.45 365.947 407.243
353.833 376.767 411.916
357.472 340.575 383.977
357.148 344.969 400.421
357.327 352.043 385.065
362.761 345.754 387.236
358.984 349.912 393.591
363.504 350.153 400.693
358.836 349.105 407.436
355.911 351.885 414.897
361.824 357.773 388.893
359.521 364.869 391.307
358.987 357.082 395.116
356.435 357.192 400.787
363.763 358.242 403.663
356.4 357.275 408.086
357.546 360.1 416.051
360.136 371.19 390.262
362.68 367.745 402.731
367.726 347.805 394.296
370.483 345.993 402.42
371.684 354.623 401.577
367.402 351.66 407.104
366.193 350.887 413.673
374.702 355.475 409.632
373.429 355.805 393.206
366.884 363.282 386.948
373.98 364.689 393.794
366.005 356.078 396.162
368.282 362.73 399.201
372.958 362.915 405.375
367.4 359.172 411.005
365.538 367.386 394.738
375.969 348.627 396.748
375.85 361.039 398.956

POINT_DATA 52
SCALARS radius double
LOOKUP_TABLE default
5.04636
5.04636
5.04636
4.24636
4.64636
4.64636
5.09809
5.09809
4.34636
5.09809
5.04636
4.4053
5.09809
5.04636
5.04636
5.04636
4.4053
5.09809
5.04636
5.02621
5.0053
5.08931
5.08931
5.07271
5.02167
5.04636
5.04636
5.06699
4.24636
4.7857
4.8857
5.08666
5.04636
5.08666
4.34636
5.09809
5.07271
5.07271
5.04636
4.54636
4.54636
5.09809
5.07271
5.03728
4.44636
5.0053
4.57271
5.04636
5.04636
4.57271
5.07271
4.34636

SCALARS status double
LOOKUP_TABLE default
1
1
1
1
1
1
1
1
1
1
1
1
1
1
1
2
1
1
2
1
1
1
1
1
2
1
1
2
1
2
2
1
1
1
1
1
1
1
1
1
1
1
1
1
1
1
1
1
1
1
1
1

SCALARS concentration double
LOOKUP_TABLE default
31.4797
36.1598
31.4797
35.2488
34.8841
34.8841
34.1486
39.559
35.2488
38.7217
36.1598
36.1598
37.7052
40.0813
40.0813
41.0234
36.1598
40.7864
41.0234
34.5724
34.7349
34.5724
34.5724
35.3646
38.4437
34.8947
34.8947
41.2083
39.559
37.2095
37.2095
39.3465
36.1598
38.4057
39.559
42.7689
37.3151
36.8274
41.4465
38.6127
38.6127
42.5522
42.303
45.1004
46.7943
42.438
42.438
44.3902
44.3902
42.438
40.1272
46.7943

SCALARS fibres double
LOOKUP_TABLE default
0
0
0
0
0
0
0
0
0
0
0
0
0
0
0
0
0
0
0
0
0
0
0
0
0
0
0
0
0
0
0
0
0
0
0
0
0
0
0
0
0
0
0
0
0
0
0
0
0
0
0
0

SCALARS phenot double
LOOKUP_TABLE default
7
7
7
7
7
7
7
7
7
7
7
7
7
7
7
7
7
7
7
7
7
7
7
7
7
7
7
7
7
7
7
7
7
7
7
7
7
7
7
7
7
7
7
7
7
7
7
7
7
7
7
7

SCALARS cont_pheno double
LOOKUP_TABLE default
0.5
0.5
0.5
0.5
0.5
0.5
0.5
0.5
0.5
0.5
0.5
0.5
0.5
0.5
0.5
0.45
0.5
0.5
0.45
0.5
0.5
0.5
0.5
0.5
0.45
0.5
0.5
0.45
0.5
0.45
0.45
0.5
0.5
0.5
0.5
0.5
0.5
0.5
0.5
0.5
0.5
0.5
0.5
0.5
0.5
0.5
0.5
0.5
0.5
0.5
0.5
0.5

SCALARS name double
LOOKUP_TABLE default
23
39
38
50
0
45
5
32
19
18
33
11
28
16
41
14
48
17
42
34
9
29
40
27
24
36
4
2
8
44
30
1
37
12
51
7
26
13
20
21
47
3
15
6
49
35
31
10
43
46
25
22

SCALARS interaction_phenotype double
LOOKUP_TABLE default
0
0
0
0
0
0
0
0
0
0
0
0
0
0
0
0
0
0
0
0
0
0
0
0
0
0
0
0
0
0
0
0
0
0
0
0
0
0
0
0
0
0
0
0
0
0
0
0
0
0
0
0

SCALARS vessel_interaction double
LOOKUP_TABLE default
0
0
0
0
0
0
0
0
0
0
0
0
0
0
0
0
0
0
0
0
0
0
0
0
0
0
0
0
0
0
0
0
0
0
0
0
0
0
0
0
0
0
0
0
0
0
0
0
0
0
0
0

SCALARS is_follower double
LOOKUP_TABLE default
1
1
1
1
1
1
1
1
1
1
1
1
1
1
1
1
1
1
1
1
1
1
1
1
1
1
1
1
1
1
1
1
1
1
1
1
1
1
1
1
1
1
1
1
1
1
1
1
1
1
1
1

SCALARS polarised double
LOOKUP_TABLE default
0
0
0
0
0
0
0
0
0
0
0
0
0
0
0
0
0
0
0
0
0
0
0
0
0
0
0
0
0
0
0
0
0
0
0
0
0
0
0
0
0
0
0
0
0
0
0
0
0
0
0
0

