# vtk DataFile Version 2.0
Unstructured grid legacy vtk file with point scalar data
ASCII

DATASET UNSTRUCTURED_GRID
POINTS 4 double
357.716 359.459 400.188
365.303 357.838 397.084
361.314 359.084 407.825
367.561 353.839 404.6

POINT_DATA 4
SCALARS radius double
LOOKUP_TABLE default
5.0685
5.08666
5.02287
5.08666

SCALARS status double
LOOKUP_TABLE default
1
1
1
1

SCALARS concentration double
LOOKUP_TABLE default
38.3556
39.9167
39.9167
39.9167

SCALARS fibres double
LOOKUP_TABLE default
0
0
0
0

SCALARS phenot double
LOOKUP_TABLE default
7
7
7
7

SCALARS cont_pheno double
LOOKUP_TABLE default
0.5
0.5
0.5
0.5

SCALARS name double
LOOKUP_TABLE default
0
2
1
3

SCALARS interaction_phenotype double
LOOKUP_TABLE default
0
0
0
0

SCALARS vessel_interaction double
LOOKUP_TABLE default
0
0
0
0

SCALARS is_follower double
LOOKUP_TABLE default
1
1
1
1

SCALARS polarised double
LOOKUP_TABLE default
0
0
0
0

