# vtk DataFile Version 2.0
Unstructured grid legacy vtk file with point scalar data
ASCII

DATASET UNSTRUCTURED_GRID
POINTS 25 double
354.079 354.552 403.174
351.813 353.83 410.999
349.528 349.315 407.639
354.946 362.166 399.334
350.672 360.891 406.736
352.091 370.577 398.51
352.661 372.455 406.752
356.191 354.63 394.472
360.769 349.688 399.436
357.942 348.659 407.721
365.375 352.789 407.36
357.202 362.377 390.994
362.594 359.681 394.47
360.727 357.613 399.235
360.923 359.232 405.246
356.626 359.128 412.141
362.862 365.526 399.444
357.65 365.993 406.564
371.889 352.519 394.164
369.572 347.788 401.152
372.931 355.151 408.434
365.543 361.703 388.811
367.398 355.77 400.056
373.026 364.102 400.16
368.215 362.674 405.403

POINT_DATA 25
SCALARS radius double
LOOKUP_TABLE default
5.09809
4.29809
4.39809
5.03728
5.03728
5.09809
5.09809
5.09809
5.04636
5.09809
5.09809
5.03728
4.36699
4.36699
5.08666
5.08666
5.09809
5.09809
5.0053
5.0053
4.99809
5.03728
5.09809
4.79809
4.79809

SCALARS status double
LOOKUP_TABLE default
1
1
1
1
1
1
1
1
1
1
1
1
2
2
1
1
1
1
1
1
1
1
1
1
1

SCALARS concentration double
LOOKUP_TABLE default
37.129
34.9205
34.9205
37.129
36.7133
39.4567
40.7269
37.129
36.5693
34.115
40.9011
38.6713
40.6326
40.6326
39.8125
38.6136
41.9429
40.7085
39.8607
38.4461
40.9011
41.8417
40.6326
44.385
44.385

SCALARS fibres double
LOOKUP_TABLE default
0
0
0
0
0
0
0
0
0
0
0
0
0
0
0
0
0
0
0
0
0
0
0
0
0

SCALARS phenot double
LOOKUP_TABLE default
7
7
7
7
7
7
7
7
7
7
7
7
7
7
7
7
7
7
7
7
7
7
7
7
7

SCALARS cont_pheno double
LOOKUP_TABLE default
0.5
0.5
0.5
0.5
0.5
0.5
0.5
0.5
0.5
0.5
0.5
0.5
0.45
0.45
0.5
0.5
0.5
0.5
0.5
0.5
0.5
0.5
0.5
0.5
0.5

SCALARS name double
LOOKUP_TABLE default
0
5
23
18
11
16
14
19
9
4
21
8
2
24
1
12
7
17
15
13
3
6
20
22
10

SCALARS interaction_phenotype double
LOOKUP_TABLE default
0
0
0
0
0
0
0
0
0
0
0
0
0
0
0
0
0
0
0
0
0
0
0
0
0

SCALARS vessel_interaction double
LOOKUP_TABLE default
0
0
0
0
0
0
0
0
0
0
0
0
0
0
0
0
0
0
0
0
0
0
0
0
0

SCALARS is_follower double
LOOKUP_TABLE default
1
1
1
1
1
1
1
1
1
1
1
1
1
1
1
1
1
1
1
1
1
1
1
1
1

SCALARS polarised double
LOOKUP_TABLE default
0
0
0
0
0
0
0
0
0
0
0
0
0
0
0
0
0
0
0
0
0
0
0
0
0

