# vtk DataFile Version 2.0
Unstructured grid legacy vtk file with point scalar data
ASCII

DATASET UNSTRUCTURED_GRID
POINTS 136 double
339.739 341.19 402.954
345.476 341.161 396.283
343.382 349.549 382.131
343.379 354.03 393.287
343.13 352.062 401.945
340.125 347.925 408.568
345.543 354.769 410.716
337.804 361.709 409.45
338.461 366.223 402.108
343.901 367.411 411.842
340.625 375.09 411.037
344.764 365.65 420.312
343.115 375.971 390.051
352.293 336.299 383.831
353.186 340.878 392.011
347.034 344.488 404.188
352.119 338.119 399.573
352.023 338.5 408.147
347.262 345.256 412.803
355.574 351.6 376.95
349.835 350.052 391.881
348.611 355.175 385.587
353.057 346.233 398.658
350.648 355.011 404.244
354.112 346.765 408.016
354.016 354.704 411.859
349.667 348.085 420.638
354.53 361.585 384.376
355.129 363.934 376.631
349.046 361.867 390.714
350.371 356.583 396.353
352.502 363.949 399.044
345.758 361.851 406.271
350.205 362.162 413.92
354.038 361.111 407.13
353.222 364.106 421.818
349.171 371.385 393.929
349.729 368.437 385.964
355.448 366.842 391.58
346.206 369.056 401.713
351.584 368.025 407.731
348.238 374.85 406.624
354.95 369.585 415.328
347.26 372.283 416.918
349.672 371.933 424.262
346.015 377.39 398.523
352.055 381.006 404.164
352.445 382.364 395.494
355.104 378.158 412.634
347.188 378.382 413.205
349.73 382.033 418.874
364.678 344.216 380.567
358.56 341.634 385.402
361.306 343.204 393.429
358.817 341.139 403.238
360.393 344.454 412.561
365.202 342.275 408.011
357.421 353.668 385.211
355.923 347.501 389.543
363.763 348.472 386.766
360.943 351.881 392.774
361.755 348.036 400.723
356.169 352.753 398.317
360.191 352.168 407.885
356.834 348.631 417.034
364.779 350.253 415.582
362.492 349.256 423.229
360.505 358.355 378.999
357.638 359.014 392.112
361.241 364.304 396.663
358.839 358.847 401.904
359.046 361.793 413.144
364.932 359.542 406.221
360.317 362.853 420.591
358.688 368.644 383.37
362.914 369.77 390.738
365.31 375.183 393.058
357.025 370.874 399.196
364.34 374.77 398.176
360.511 365.977 405.371
357.853 374.001 406.565
359.312 376.834 382.059
357.408 375.826 392.89
363.907 378.865 388.428
359.022 379.513 400.109
366.107 339.788 374.362
368.929 341.812 394.245
366.033 338.22 387.128
368.916 345.551 402.126
372.628 339.618 404.162
372.494 340.918 410.031
369.913 350.958 380.948
371.615 349.169 388.479
367.787 350.051 395.325
373.254 352.736 401.065
374.624 346.181 396.243
368.342 351.129 407.49
372.446 350.719 414.059
370.927 359.384 383.512
373.305 363.318 376.301
368.082 356.8 376.249
365.891 356.107 389.368
368.978 363.952 392.343
373.541 355.974 393.069
366.213 357.762 397.538
371.602 360.403 402.517
365.488 355.996 409.655
373.417 358.087 410.296
365.706 359.849 422.064
366.485 358.035 415.147
374.516 366.626 383.438
366.509 366.471 380.178
368.871 372.449 386.275
371.428 372.465 394.238
367.643 367.742 400.201
366.758 371.483 407.84
372.225 366.232 412.164
378.562 337.018 382.645
375.897 341.731 389.454
380.53 340.676 397.034
377.314 345.561 402.653
378.987 349.844 391.392
381.982 351.235 399.2
378.549 347.05 409.563
380.851 354.893 408.097
379.098 355.203 416.484
377.421 346.566 418.291
377.489 363.154 390.027
382.34 356.968 392.537
379.566 358.995 400.592
376.496 365.406 405.645
375.49 365.972 397.272
383.223 367.138 401.019
379.201 374.132 397.235
378.177 372.884 408.027
387.457 356.336 403.609

POINT_DATA 136
SCALARS radius double
LOOKUP_TABLE default
5.07271
5.0053
5.0053
5.04636
5.0053
5.0053
5.09809
5.07271
5.07271
5.0053
5.08931
5.02621
5.0053
5.08931
5.03939
5.07271
5.0053
5.0053
5.07271
5.08931
4.83939
5.0053
5.0053
5.0053
5.07271
5.02621
5.0053
5.04636
5.04636
5.03653
5.03653
5.09809
5.0053
5.0053
5.02621
5.08666
5.07271
5.07271
5.07271
5.09809
5.04636
5.08931
5.04636
4.98931
5.02621
5.0053
5.07271
5.07271
5.0053
4.98931
5.0053
5.09976
5.08931
5.03939
5.0053
4.7053
4.8053
5.0857
4.83939
5.08931
5.09976
5.03939
5.09976
5.03653
5.0053
5.0053
5.0053
5.02167
5.00492
5.00492
5.07271
5.07271
4.13728
4.32621
5.0053
5.00492
4.18931
5.09749
4.28931
5.04636
5.0053
5.0053
5.07271
5.0053
5.0053
5.09976
5.02621
5.03939
5.02167
4.32621
4.22621
5.08931
5.08931
5.07271
5.04636
4.93939
5.04636
5.0053
5.07271
5.0053
5.07271
5.0857
5.00492
5.07271
5.07271
5.08931
4.13728
5.0053
4.32621
5.04636
5.0053
5.04636
5.04636
5.02621
5.02621
5.04636
5.0053
5.03939
5.09976
5.09976
4.93939
5.08931
5.07271
5.08931
5.07271
5.07271
5.0053
5.0053
5.0053
5.07271
5.08931
5.04636
5.08931
5.08931
5.02621
5.07271

SCALARS status double
LOOKUP_TABLE default
1
1
1
1
1
1
1
2
2
2
1
2
1
1
1
1
1
1
1
1
1
1
1
1
1
1
1
1
1
2
2
1
1
1
1
1
1
1
1
1
1
1
1
1
1
1
2
2
2
1
2
1
1
1
1
1
1
2
1
1
1
1
1
2
1
1
1
2
2
2
1
1
1
1
1
2
1
2
1
1
2
1
1
1
1
1
1
1
2
1
1
1
1
1
1
1
1
1
1
1
1
2
2
1
1
1
1
1
1
1
2
1
1
1
1
1
1
1
1
1
1
1
1
1
1
1
1
2
1
1
1
1
1
1
1
1

SCALARS concentration double
LOOKUP_TABLE default
28.3532
28.5905
30.7587
32.5606
32.0765
29.6742
33.2249
32.7328
32.7328
34.6758
37.7986
35.6326
35.8258
31.1079
32.001
30.5981
29.8174
29.8174
30.9601
34.3209
33.9265
33.7848
33.0077
35.008
32.4577
36.8888
32.0345
37.4387
38.7421
36.6942
35.358
38.3945
35.008
36.5066
36.8888
38.9797
38.0659
40.1217
40.1217
36.6748
38.7876
37.7986
41.974
38.4875
39.401
38.115
42.6008
42.9217
43.9501
38.4875
41.7015
34.2496
31.1079
32.001
32.9456
34.2852
34.2852
36.1024
33.9265
35.5252
35.359
35.359
35.359
36.2489
34.7605
37.2243
37.2243
39.7063
40.8037
40.8037
39.0298
40.0661
41.8676
40.0661
42.3246
44.7615
49.5791
43.3088
49.5791
42.0318
44.1799
45.499
42.7738
47.6384
46.6075
34.2496
35.8608
32.6227
36.5718
35.7807
35.7807
39.1108
39.1108
38.5365
42.8105
38.3316
38.4343
40.1147
43.4315
49.8386
43.4315
39.9684
45.2533
43.1428
41.7445
47.4371
41.8676
43.7783
40.0661
41.3352
49.1747
46.7599
50.288
49.5791
45.1709
48.7996
49.1236
34.9038
36.2744
36.0888
38.3316
40.8087
43.6934
39.4357
44.7028
44.7028
40.1147
47.7895
47.3992
49.0446
47.4371
49.9074
53.5971
53.5971
54.0964
48.3756

SCALARS fibres double
LOOKUP_TABLE default
0
0
0
0
0
0
0
0
0
0
0
0
0
0
0
0
0
0
0
0
0
0
0
0
0
0
0
0
0
0
0
0
0
0
0
0
0
0
0
0
0
0
0
0
0
0
0
0
0
0
0
0
0
0
0
0
0
0
0
0
0
0
0
0
0
0
0
0
0
0
0
0
0
0
0
0
0
0
0
0
0
0
0
0
0
0
0
0
0
0
0
0
0
0
0
0
0
0
0
0
0
0
0
0
0
0
0
0
0
0
0
0
0
0
0
0
0
0
0
0
0
0
0
0
0
0
0
0
0
0
0
0
0
0
0
0

SCALARS phenot double
LOOKUP_TABLE default
7
7
7
7
7
7
7
7
7
7
7
7
7
7
7
7
7
7
7
7
7
7
7
7
7
7
7
7
7
7
7
7
7
7
7
7
7
7
7
7
7
7
7
7
7
7
7
7
7
7
7
7
7
7
7
7
7
7
7
7
7
7
7
7
7
7
7
7
7
7
7
7
7
7
7
7
7
7
7
7
7
7
7
7
7
7
7
7
7
7
7
7
7
7
7
7
7
7
7
7
7
7
7
7
7
7
7
7
7
7
7
7
7
7
7
7
7
7
7
7
7
7
7
7
7
7
7
7
7
7
7
7
7
7
7
7

SCALARS cont_pheno double
LOOKUP_TABLE default
0.5
0.5
0.5
0.5
0.5
0.5
0.5
0.45
0.45
0.45
0.5
0.45
0.5
0.5
0.5
0.5
0.5
0.5
0.5
0.5
0.5
0.5
0.5
0.5
0.5
0.5
0.5
0.5
0.5
0.45
0.45
0.5
0.5
0.5
0.5
0.5
0.5
0.5
0.5
0.5
0.5
0.5
0.5
0.5
0.5
0.5
0.45
0.45
0.45
0.5
0.45
0.5
0.5
0.5
0.5
0.5
0.5
0.45
0.5
0.5
0.5
0.5
0.5
0.45
0.5
0.5
0.5
0.45
0.45
0.45
0.5
0.5
0.5
0.5
0.5
0.45
0.5
0.45
0.5
0.5
0.45
0.5
0.5
0.5
0.5
0.5
0.5
0.5
0.45
0.5
0.5
0.5
0.5
0.5
0.5
0.5
0.5
0.5
0.5
0.5
0.5
0.45
0.45
0.5
0.5
0.5
0.5
0.5
0.5
0.5
0.45
0.5
0.5
0.5
0.5
0.5
0.5
0.5
0.5
0.5
0.5
0.5
0.5
0.5
0.5
0.5
0.5
0.45
0.5
0.5
0.5
0.5
0.5
0.5
0.5
0.5

SCALARS name double
LOOKUP_TABLE default
81
45
90
19
0
23
5
108
97
39
115
48
74
118
80
103
117
38
78
29
79
50
66
112
105
109
65
32
104
44
30
18
33
11
37
12
16
116
8
28
17
82
53
100
95
41
56
85
42
128
59
40
34
126
9
36
131
73
130
62
27
107
124
55
4
47
119
52
114
61
96
67
1
110
87
92
133
69
111
71
14
94
99
51
68
122
26
102
24
134
13
120
86
35
20
25
21
3
77
89
125
2
76
15
93
121
135
72
132
43
6
70
83
46
31
7
10
64
54
88
129
60
98
75
57
123
127
106
22
63
84
49
58
113
101
91

SCALARS interaction_phenotype double
LOOKUP_TABLE default
0
0
0
0
0
0
0
0
0
0
0
0
0
0
0
0
0
0
0
0
0
0
0
0
0
0
0
0
0
0
0
0
0
0
0
0
0
0
0
0
0
0
0
0
0
0
0
0
0
0
0
0
0
0
0
0
0
0
0
0
0
0
0
0
0
0
0
0
0
0
0
0
0
0
0
0
0
0
0
0
0
0
0
0
0
0
0
0
0
0
0
0
0
0
0
0
0
0
0
0
0
0
0
0
0
0
0
0
0
0
0
0
0
0
0
0
0
0
0
0
0
0
0
0
0
0
0
0
0
0
0
0
0
0
0
0

SCALARS vessel_interaction double
LOOKUP_TABLE default
0
0
0
0
0
0
0
0
0
0
0
0
0
0
0
0
0
0
0
0
0
0
0
0
0
0
0
0
0
0
0
0
0
0
0
0
0
0
0
0
0
0
0
0
0
0
0
0
0
0
0
0
0
0
0
0
0
0
0
0
0
0
0
0
0
0
0
0
0
0
0
0
0
0
0
0
0
0
0
0
0
0
0
0
0
0
0
0
0
0
0
0
0
0
0
0
0
0
0
0
0
0
0
0
0
0
0
0
0
0
0
0
0
0
0
0
0
0
0
0
0
0
0
0
0
0
0
0
0
0
0
0
0
0
0
0

SCALARS is_follower double
LOOKUP_TABLE default
1
1
1
1
1
1
1
1
1
1
1
1
1
1
1
1
1
1
1
1
1
1
1
1
1
1
1
1
1
1
1
1
1
1
1
1
1
1
1
1
1
1
1
1
1
1
1
1
1
1
1
1
1
1
1
1
1
1
1
1
1
1
1
1
1
1
1
1
1
1
1
1
1
1
1
1
1
1
1
1
1
1
1
1
1
1
1
1
1
1
1
1
1
1
1
1
1
1
1
1
1
1
1
1
1
1
1
1
1
1
1
1
1
1
1
1
1
1
1
1
1
1
1
1
1
1
1
1
1
1
1
1
1
1
1
1

SCALARS polarised double
LOOKUP_TABLE default
0
0
0
0
0
0
0
0
0
0
0
0
0
0
0
0
0
0
0
0
0
0
0
0
0
0
0
0
0
0
0
0
0
0
0
0
0
0
0
0
0
0
0
0
0
0
0
0
0
0
0
0
0
0
0
0
0
0
0
0
0
0
0
0
0
0
0
0
0
0
0
0
0
0
0
0
0
0
0
0
0
0
0
0
0
0
0
0
0
0
0
0
0
0
0
0
0
0
0
0
0
0
0
0
0
0
0
0
0
0
0
0
0
0
0
0
0
0
0
0
0
0
0
0
0
0
0
0
0
0
0
0
0
0
0
0

