# vtk DataFile Version 2.0
Unstructured grid legacy vtk file with point scalar data
ASCII

DATASET UNSTRUCTURED_GRID
POINTS 195 double
334.531 340.368 407.259
334.819 369.055 406.265
338.466 343.976 400.49
345.41 340.869 397.2
345.046 340.75 405.021
343.136 349.883 382.845
341.202 354.521 393.187
341.629 352.192 401.903
338.465 347.685 408.475
343.711 354.004 411.195
341.947 363.243 396.933
343.764 360.085 405.127
336.137 361.351 408.025
340.538 359.667 411.637
339.582 360.647 415.994
344.841 364.843 419.828
342.887 375.124 389.379
337.692 367.022 401.397
343.643 366.545 411.233
338.866 374.282 411.695
345.468 373.034 416.814
341.124 378.883 403.93
343.787 380.966 395.649
344.594 380.927 414.182
352.201 334.274 382.329
348.64 341.03 391.845
350.765 339.723 385.941
354.688 345.701 389.435
350.593 336.248 401.871
351.115 345.31 400.654
355.161 339.105 396.039
351.951 337.734 409.962
352.673 344.981 410.017
351.643 341.989 420.497
355.454 352.393 369.905
354.361 352.607 378.74
348.268 348.966 393.199
349.617 354.105 385.824
353.555 354.114 397.303
349.469 354.398 404.754
346.277 347.635 407.002
346.453 346.226 414.613
351.604 353.274 413.441
354.092 349.826 406.499
348.087 349.9 421.836
350.877 360.344 378.695
347.996 361.489 390.107
354.807 360.439 385.26
347.188 357.257 397.798
350.472 365.188 397.263
351.706 361.943 404.769
350.385 362.378 414.276
353.369 363.118 422.182
355.554 365.486 374.238
354.928 366.92 381.983
354.142 373.506 380.783
348.297 369.22 385.676
350.318 372.664 393.44
353.879 366.232 390.716
345.777 368.034 403.265
352.025 368.103 409.649
347.027 374.716 408.921
353.979 373.905 405.578
353.411 370.574 417.263
349.507 370.326 424.048
348.538 374.529 430.76
349.573 380.227 389.585
348.059 375.418 400.509
352.063 383.894 396.65
352.016 381.64 405.398
352.712 378.224 413.529
350.399 383.75 419.859
364.77 343.407 379.617
358.975 340.052 385.234
361.828 342.132 393.059
357.409 341.05 404.484
362.897 345.483 400.779
359.117 342.167 413.147
357.683 352.864 386.353
364.203 347.466 387.087
359.577 350.579 393.904
356.943 349.146 400.901
361.772 352.951 402.56
360.467 348.563 408.424
355.638 348.656 418.889
362.668 349.162 415.786
362.367 348.648 423.824
360.588 358.809 372.637
361.684 364.102 383.88
361.91 356.614 380.766
365.11 355.893 389.09
356.201 359.092 392.665
362.62 364.328 393.564
357.538 363.042 398.965
363.232 357.003 396.466
357.585 357.539 402.648
364.007 356.436 411.599
356.644 356.482 409.244
358.168 360.414 415.871
361.698 365.188 421.063
361.494 373.631 382.982
363.162 371.453 391.375
358.452 368.811 388.044
357.856 370.476 396.792
359.773 368.2 404.802
363.64 374.963 401.088
359.922 368.365 413.328
361.74 379.062 377.13
357.1 377.641 391.859
361.632 381.6 385.902
365.098 379.317 393.049
355.978 377.527 399.229
360.613 382.504 404.021
360.406 384.773 396.003
359.903 376.286 409.797
357.31 385.679 379.591
367.248 339.11 370.145
372.811 344.793 381.919
370.734 337.547 378.077
367.467 339.778 387.331
370.045 339.382 395.146
371.053 344.644 402.04
373.366 337.348 404.684
365.731 341.69 407.622
374.261 340.343 411.908
369.363 345.55 413.931
368.213 351.442 379.113
372.913 347.582 389.284
367.29 347.378 394.656
371.92 353.479 385.694
371.143 354.187 394.084
372.074 354.552 402.033
367.769 352.768 398.684
367.401 350.85 405.859
374.44 349.621 407.229
369.963 352.355 413.151
366.921 354.695 419.86
375.213 354.063 418.508
368.54 358.271 374.166
369.394 359.634 381.887
373.138 363.994 375.793
369.516 362.784 389.591
365.668 359.074 403.515
370.294 361.576 396.987
365.605 364.307 409.667
371.768 358.692 408.873
369.577 362.54 418.026
366.348 359.742 426.698
366.236 368.66 377.663
372.695 366.87 382.969
370.995 375.255 383.929
366.8 368.983 385.627
369.107 374.778 389.49
369.457 372.242 395.728
367.28 367.445 401.895
366.958 372.298 408.526
373.131 367.004 411.695
379.253 336.795 382.129
376.011 340.425 389.013
378.535 338.374 397.418
378.912 343.968 404.301
375.673 345.5 396.162
381.706 344.824 412.694
378.808 350.605 384.109
380.832 350.313 391.673
376.398 350.018 400.768
384.172 348.431 399.593
380.307 354.927 397.914
382.546 353.314 411.239
378.462 354.993 405.448
376.563 349.255 413.145
383.07 353.814 418.771
377.699 346.358 420.488
375.723 355.782 377.835
378.351 363.655 379.96
376.104 357.435 391.944
377.936 364.127 390.189
384.266 357.635 391.098
375.42 360.869 402.215
384.483 358.494 402.36
381.369 362.617 396.527
382.887 361.564 408.997
377.459 360.811 415.383
378.238 370.895 378.292
376.292 374.078 391.201
383.237 369.908 394.064
378.709 369.5 385.691
375.394 367.898 397.573
381.32 372.82 401.541
378.465 367.048 405.335
377.745 373.621 409.705
378.9 379.59 396.892
389.913 353.417 404.795
389.515 354.634 399.129
386.355 366.341 402.195

POINT_DATA 195
SCALARS radius double
LOOKUP_TABLE default
5.02621
4.18931
5.02621
5.0053
4.92621
5.0053
5.04636
5.0053
5.0053
5.09809
5.02621
5.0053
5.02621
3.98931
4.08931
5.02621
5.0053
4.28931
5.0053
5.08931
5.08931
5.07271
5.07271
5.08931
5.08931
4.54768
4.64768
5.03939
5.0053
5.0053
5.09976
5.0053
4.72621
5.07271
5.03939
5.03939
5.03939
5.0053
5.04768
5.0053
4.82621
5.07271
5.02621
4.72621
5.07271
5.0053
5.03653
5.0053
5.03653
5.09809
5.02621
5.0053
5.08666
5.04636
4.52621
4.62621
5.07271
5.07271
4.52621
5.09809
5.04636
5.03939
5.00492
5.04636
5.08931
5.08931
5.02621
5.03939
5.02621
5.07271
5.0053
5.0053
5.09976
5.08931
5.03939
5.0053
5.03939
5.0053
5.0857
5.08931
5.09976
4.60635
4.60635
5.03653
5.0053
5.07271
5.0053
5.0857
5.07271
5.0857
5.0857
5.00492
5.00492
4.98931
5.02621
4.98931
5.03728
5.02621
5.02621
5.02621
5.07271
5.00492
4.52621
5.04588
5.04636
5.08931
5.02621
5.02621
5.07271
5.0053
5.08931
5.00492
5.07271
5.07271
5.0053
5.02621
5.04768
5.03939
5.04768
5.03939
5.02621
5.02167
5.02621
5.0053
5.02621
5.02621
5.08931
4.99976
5.07271
5.09976
4.28931
4.4053
4.28931
5.04636
4.64684
5.02621
5.0053
5.07271
5.07271
5.02621
4.37271
5.00492
5.09809
5.03939
5.09809
5.07271
5.0053
5.02621
5.04636
5.02621
4.5053
5.02621
4.5053
5.08931
5.02621
5.04636
5.0053
5.03939
5.09976
5.09976
5.03939
5.03939
5.08931
5.03939
5.03939
4.4053
5.07271
4.92621
5.02621
5.02621
4.64684
5.07271
5.0053
5.02621
4.37271
5.07271
5.0053
5.0053
5.03939
5.02621
5.07271
5.03939
5.07271
5.02621
5.08931
5.07271
5.02621
5.0053
5.03939
5.03939
5.02621
5.03939
4.12621
4.22621
5.08931

SCALARS status double
LOOKUP_TABLE default
1
2
1
1
1
1
1
1
1
1
2
1
2
2
2
2
1
2
2
1
1
1
1
1
1
1
1
1
1
1
1
1
1
1
1
1
1
1
1
1
1
1
1
1
1
1
2
1
2
1
1
1
1
1
1
1
1
1
1
1
1
1
2
1
1
1
2
1
2
2
2
2
1
1
1
1
1
1
2
1
1
1
1
2
1
1
1
2
1
2
2
2
2
1
1
1
1
1
1
1
1
2
1
2
1
1
1
1
1
1
1
2
1
1
2
1
1
1
1
1
1
2
1
1
1
1
1
1
1
1
1
1
1
1
1
1
1
1
1
1
1
2
1
1
1
1
1
1
1
2
1
2
1
1
1
1
1
1
1
1
1
1
1
1
1
1
1
1
1
1
1
1
1
1
1
1
2
1
1
1
1
1
1
2
1
1
2
1
1
1
1
1
1
1
1

SCALARS concentration double
LOOKUP_TABLE default
25.7568
32.4377
27.5975
28.7497
28.7174
30.3355
31.0119
30.7592
28.6319
31.8294
33.3151
33.4148
30.7716
31.8489
31.8489
34.9597
35.924
32.4377
34.6742
34.5902
37.182
35.8956
37.7998
38.0399
28.6322
29.5136
29.4839
32.656
28.527
31.7312
30.4582
29.5101
32.0098
30.5524
34.9148
34.3094
31.7046
33.6444
35.1973
33.8647
30.4936
30.4495
34.539
33.7195
31.8077
35.7803
35.3433
37.5159
33.7974
37.6421
37.1612
36.8664
38.6702
39.2571
39.7433
41.1665
36.9538
38.9901
39.9834
36.1567
39.3416
38.1695
41.8538
41.7033
38.8166
38.9215
40.2951
38.6369
42.7838
42.8285
43.0659
42.4257
34.0656
31.8768
33.3747
31.67
35.1221
32.6671
35.7506
35.5914
36.0806
35.0073
37.3843
35.5471
33.8662
36.4469
36.0817
40.09
42.3072
39.3859
39.6636
37.8178
42.5385
39.529
39.6863
38.3678
40.0464
37.3753
39.2115
43.2857
45.5486
45.4303
39.9834
42.7005
42.4932
47.5135
43.9465
47.0832
44.0659
48.1183
49.986
43.0069
48.8251
47.9718
47.0045
45.8237
32.9384
37.1003
32.9668
33.487
34.3012
36.445
33.9707
34.0211
35.2939
36.8091
38.9061
38.2463
37.1859
40.6847
40.9072
40.7356
40.9072
38.6249
40.1852
39.8371
40.3656
42.0442
45.0051
44.4967
51.242
45.5035
41.2413
45.1695
44.3286
43.7631
45.2856
42.3972
47.6564
49.8147
51.7472
46.8644
51.7472
50.3981
46.3144
49.4368
49.6283
34.5655
36.1254
35.2402
37.8488
38.325
38.9441
41.542
41.5696
40.7356
41.5541
45.5018
44.5283
44.4088
40.3486
44.6619
38.9189
45.7719
51.242
44.5977
50.6472
47.725
46.9027
49.2179
50.7083
50.3234
47.3984
55.8856
56.0469
55.455
53.751
50.9732
55.7964
51.9776
55.6575
58.6677
47.7385
47.7385
56.0569

SCALARS fibres double
LOOKUP_TABLE default
0
0
0
0
0
0
0
0
0
0
0
0
0
0
0
0
0
0
0
0
0
0
0
0
0
0
0
0
0
0
0
0
0
0
0
0
0
0
0
0
0
0
0
0
0
0
0
0
0
0
0
0
0
0
0
0
0
0
0
0
0
0
0
0
0
0
0
0
0
0
0
0
0
0
0
0
0
0
0
0
0
0
0
0
0
0
0
0
0
0
0
0
0
0
0
0
0
0
0
0
0
0
0
0
0
0
0
0
0
0
0
0
0
0
0
0
0
0
0
0
0
0
0
0
0
0
0
0
0
0
0
0
0
0
0
0
0
0
0
0
0
0
0
0
0
0
0
0
0
0
0
0
0
0
0
0
0
0
0
0
0
0
0
0
0
0
0
0
0
0
0
0
0
0
0
0
0
0
0
0
0
0
0
0
0
0
0
0
0
0
0
0
0
0
0

SCALARS phenot double
LOOKUP_TABLE default
7
7
7
7
7
7
7
7
7
7
7
7
7
7
7
7
7
7
7
7
7
7
7
7
7
7
7
7
7
7
7
7
7
7
7
7
7
7
7
7
7
7
7
7
7
7
7
7
7
7
7
7
7
7
7
7
7
7
7
7
7
7
7
7
7
7
7
7
7
7
7
7
7
7
7
7
7
7
7
7
7
7
7
7
7
7
7
7
7
7
7
7
7
7
7
7
7
7
7
7
7
7
7
7
7
7
7
7
7
7
7
7
7
7
7
7
7
7
7
7
7
7
7
7
7
7
7
7
7
7
7
7
7
7
7
7
7
7
7
7
7
7
7
7
7
7
7
7
7
7
7
7
7
7
7
7
7
7
7
7
7
7
7
7
7
7
7
7
7
7
7
7
7
7
7
7
7
7
7
7
7
7
7
7
7
7
7
7
7
7
7
7
7
7
7

SCALARS cont_pheno double
LOOKUP_TABLE default
0.5
0.45
0.5
0.5
0.5
0.5
0.5
0.5
0.5
0.5
0.45
0.5
0.45
0.45
0.45
0.45
0.5
0.45
0.45
0.5
0.5
0.5
0.5
0.5
0.5
0.5
0.5
0.5
0.5
0.5
0.5
0.5
0.5
0.5
0.5
0.5
0.5
0.5
0.5
0.5
0.5
0.5
0.5
0.5
0.5
0.5
0.45
0.5
0.45
0.5
0.5
0.5
0.5
0.5
0.5
0.5
0.5
0.5
0.5
0.5
0.5
0.5
0.45
0.5
0.5
0.5
0.45
0.5
0.45
0.45
0.45
0.45
0.5
0.5
0.5
0.5
0.5
0.5
0.45
0.5
0.5
0.5
0.5
0.45
0.5
0.5
0.5
0.45
0.5
0.45
0.45
0.45
0.45
0.5
0.5
0.5
0.5
0.5
0.5
0.5
0.5
0.45
0.5
0.45
0.5
0.5
0.5
0.5
0.5
0.5
0.5
0.45
0.5
0.5
0.45
0.5
0.5
0.5
0.5
0.5
0.5
0.45
0.5
0.5
0.5
0.5
0.5
0.5
0.5
0.5
0.5
0.5
0.5
0.5
0.5
0.5
0.5
0.5
0.5
0.5
0.5
0.45
0.5
0.5
0.5
0.5
0.5
0.5
0.5
0.45
0.5
0.45
0.5
0.5
0.5
0.5
0.5
0.5
0.5
0.5
0.5
0.5
0.5
0.5
0.5
0.5
0.5
0.5
0.5
0.5
0.5
0.5
0.5
0.5
0.5
0.5
0.45
0.5
0.5
0.5
0.5
0.5
0.5
0.45
0.5
0.5
0.45
0.5
0.5
0.5
0.5
0.5
0.5
0.5
0.5

SCALARS name double
LOOKUP_TABLE default
166
191
81
45
103
90
19
0
23
5
145
33
108
194
148
48
74
97
39
115
100
149
41
128
118
80
184
130
117
66
141
38
105
152
136
29
79
50
167
112
181
78
109
182
65
32
44
158
30
18
37
11
12
104
87
185
116
16
8
28
17
82
173
53
95
171
140
146
85
56
42
59
40
34
126
9
107
36
73
62
27
124
186
55
4
47
119
52
147
160
2
114
61
96
93
178
135
142
67
110
94
92
187
137
71
111
143
162
99
51
133
69
68
163
14
150
122
138
169
102
26
24
134
131
13
161
120
86
35
176
165
189
192
21
168
177
157
3
125
77
89
76
156
159
1
72
43
132
70
144
83
179
188
46
31
7
10
64
54
88
129
25
75
170
60
20
98
180
57
174
183
123
127
151
190
15
106
22
121
63
154
172
139
6
153
164
175
49
155
84
101
113
91
193
58

SCALARS interaction_phenotype double
LOOKUP_TABLE default
0
0
0
0
0
0
0
0
0
0
0
0
0
0
0
0
0
0
0
0
0
0
0
0
0
0
0
0
0
0
0
0
0
0
0
0
0
0
0
0
0
0
0
0
0
0
0
0
0
0
0
0
0
0
0
0
0
0
0
0
0
0
0
0
0
0
0
0
0
0
0
0
0
0
0
0
0
0
0
0
0
0
0
0
0
0
0
0
0
0
0
0
0
0
0
0
0
0
0
0
0
0
0
0
0
0
0
0
0
0
0
0
0
0
0
0
0
0
0
0
0
0
0
0
0
0
0
0
0
0
0
0
0
0
0
0
0
0
0
0
0
0
0
0
0
0
0
0
0
0
0
0
0
0
0
0
0
0
0
0
0
0
0
0
0
0
0
0
0
0
0
0
0
0
0
0
0
0
0
0
0
0
0
0
0
0
0
0
0
0
0
0
0
0
0

SCALARS vessel_interaction double
LOOKUP_TABLE default
0
0
0
0
0
0
0
0
0
0
0
0
0
0
0
0
0
0
0
0
0
0
0
0
0
0
0
0
0
0
0
0
0
0
0
0
0
0
0
0
0
0
0
0
0
0
0
0
0
0
0
0
0
0
0
0
0
0
0
0
0
0
0
0
0
0
0
0
0
0
0
0
0
0
0
0
0
0
0
0
0
0
0
0
0
0
0
0
0
0
0
0
0
0
0
0
0
0
0
0
0
0
0
0
0
0
0
0
0
0
0
0
0
0
0
0
0
0
0
0
0
0
0
0
0
0
0
0
0
0
0
0
0
0
0
0
0
0
0
0
0
0
0
0
0
0
0
0
0
0
0
0
0
0
0
0
0
0
0
0
0
0
0
0
0
0
0
0
0
0
0
0
0
0
0
0
0
0
0
0
0
0
0
0
0
0
0
0
0
0
0
0
0
0
0

SCALARS is_follower double
LOOKUP_TABLE default
1
1
1
1
1
1
1
1
1
1
1
1
1
1
1
1
1
1
1
1
1
1
1
1
1
1
1
1
1
1
1
1
1
1
1
1
1
1
1
1
1
1
1
1
1
1
1
1
1
1
1
1
1
1
1
1
1
1
1
1
1
1
1
1
1
1
1
1
1
1
1
1
1
1
1
1
1
1
1
1
1
1
1
1
1
1
1
1
1
1
1
1
1
1
1
1
1
1
1
1
1
1
1
1
1
1
1
1
1
1
1
1
1
1
1
1
1
1
1
1
1
1
1
1
1
1
1
1
1
1
1
1
1
1
1
1
1
1
1
1
1
1
1
1
1
1
1
1
1
1
1
1
1
1
1
1
1
1
1
1
1
1
1
1
1
1
1
1
1
1
1
1
1
1
1
1
1
1
1
1
1
1
1
1
1
1
1
1
1
1
1
1
1
1
1

SCALARS polarised double
LOOKUP_TABLE default
0
0
0
0
0
0
0
0
0
0
0
0
0
0
0
0
0
0
0
0
0
0
0
0
0
0
0
0
0
0
0
0
0
0
0
0
0
0
0
0
0
0
0
0
0
0
0
0
0
0
0
0
0
0
0
0
0
0
0
0
0
0
0
0
0
0
0
0
0
0
0
0
0
0
0
0
0
0
0
0
0
0
0
0
0
0
0
0
0
0
0
0
0
0
0
0
0
0
0
0
0
0
0
0
0
0
0
0
0
0
0
0
0
0
0
0
0
0
0
0
0
0
0
0
0
0
0
0
0
0
0
0
0
0
0
0
0
0
0
0
0
0
0
0
0
0
0
0
0
0
0
0
0
0
0
0
0
0
0
0
0
0
0
0
0
0
0
0
0
0
0
0
0
0
0
0
0
0
0
0
0
0
0
0
0
0
0
0
0
0
0
0
0
0
0

