# vtk DataFile Version 2.0
Unstructured grid legacy vtk file with point scalar data
ASCII

DATASET UNSTRUCTURED_GRID
POINTS 4 double
357.063 360.329 399.993
361.351 359.226 407.939
366.979 353.687 404.789
365.59 358.299 397.241

POINT_DATA 4
SCALARS radius double
LOOKUP_TABLE default
5.0685
5.02287
5.08666
5.08666

SCALARS status double
LOOKUP_TABLE default
1
1
1
1

SCALARS concentration double
LOOKUP_TABLE default
38.6751
39.8802
39.9665
41.1145

SCALARS fibres double
LOOKUP_TABLE default
0
0
0
0

SCALARS phenot double
LOOKUP_TABLE default
7
7
7
7

SCALARS cont_pheno double
LOOKUP_TABLE default
0.5
0.5
0.5
0.5

SCALARS name double
LOOKUP_TABLE default
0
1
3
2

SCALARS interaction_phenotype double
LOOKUP_TABLE default
0
0
0
0

SCALARS vessel_interaction double
LOOKUP_TABLE default
0
0
0
0

SCALARS is_follower double
LOOKUP_TABLE default
1
1
1
1

SCALARS polarised double
LOOKUP_TABLE default
0
0
0
0

