# vtk DataFile Version 2.0
Unstructured grid legacy vtk file with point scalar data
ASCII

DATASET UNSTRUCTURED_GRID
POINTS 9 double
352.824 358.71 406.481
361.187 350.896 402.89
362.909 359.857 390.697
357.184 362.096 394.234
355.854 365.085 401.609
356.622 356.642 399.491
365.082 357.547 398.499
361.318 359.308 406.313
367.657 354.245 406.441

POINT_DATA 9
SCALARS radius double
LOOKUP_TABLE default
5.08666
5.03728
4.63728
4.73728
5.08666
5.08666
5.08666
5.02287
5.03728

SCALARS status double
LOOKUP_TABLE default
1
1
1
1
1
1
1
1
1

SCALARS concentration double
LOOKUP_TABLE default
38.6805
36.6931
38.6805
38.6805
38.6805
38.6805
41.0269
39.8573
40.0793

SCALARS fibres double
LOOKUP_TABLE default
0
0
0
0
0
0
0
0
0

SCALARS phenot double
LOOKUP_TABLE default
7
7
7
7
7
7
7
7
7

SCALARS cont_pheno double
LOOKUP_TABLE default
0.5
0.5
0.5
0.5
0.5
0.5
0.5
0.5
0.5

SCALARS name double
LOOKUP_TABLE default
5
4
6
8
7
0
2
1
3

SCALARS interaction_phenotype double
LOOKUP_TABLE default
0
0
0
0
0
0
0
0
0

SCALARS vessel_interaction double
LOOKUP_TABLE default
0
0
0
0
0
0
0
0
0

SCALARS is_follower double
LOOKUP_TABLE default
1
1
1
1
1
1
1
1
1

SCALARS polarised double
LOOKUP_TABLE default
0
0
0
0
0
0
0
0
0

