# vtk DataFile Version 2.0
Unstructured grid legacy vtk file with point scalar data
ASCII

DATASET UNSTRUCTURED_GRID
POINTS 8 double
355.558 361.942 401.883
352.716 359.612 405.109
360.25 351.973 401.693
360.058 359.62 392.796
358.072 358.424 398.729
361.464 358.994 406.184
367.728 353.103 406.595
366.237 357.552 399.295

POINT_DATA 8
SCALARS radius double
LOOKUP_TABLE default
4.08666
3.98666
5.03728
4.48666
4.58666
5.02287
5.03728
5.08666

SCALARS status double
LOOKUP_TABLE default
1
1
1
1
1
1
1
1

SCALARS concentration double
LOOKUP_TABLE default
38.6805
38.6805
36.6931
38.6805
38.6805
39.8573
40.0793
41.0269

SCALARS fibres double
LOOKUP_TABLE default
0
0
0
0
0
0
0
0

SCALARS phenot double
LOOKUP_TABLE default
7
7
7
7
7
7
7
7

SCALARS cont_pheno double
LOOKUP_TABLE default
0.5
0.5
0.5
0.5
0.5
0.5
0.5
0.5

SCALARS name double
LOOKUP_TABLE default
7
5
4
6
0
1
3
2

SCALARS interaction_phenotype double
LOOKUP_TABLE default
0
0
0
0
0
0
0
0

SCALARS vessel_interaction double
LOOKUP_TABLE default
0
0
0
0
0
0
0
0

SCALARS is_follower double
LOOKUP_TABLE default
1
1
1
1
1
1
1
1

SCALARS polarised double
LOOKUP_TABLE default
0
0
0
0
0
0
0
0

