# vtk DataFile Version 2.0
Unstructured grid legacy vtk file with point scalar data
ASCII

DATASET UNSTRUCTURED_GRID
POINTS 42 double
345.511 365.95 408.45
350.169 341.579 408.572
352.876 351.937 402.67
349.76 354.585 410.67
346.466 348.405 406.852
352.179 355.838 392.545
355.028 364.886 398.009
350.87 360.356 404.163
349.643 361.718 412.339
349.099 368.408 402.171
353.206 372.2 397.746
348.13 374.839 395.554
353.534 374.207 405.508
358.273 341.048 384.13
357.864 344.421 400.257
358.413 352.455 384.855
358.475 349.945 393.358
361.131 347.171 387.071
363.418 350.351 400.488
356.443 350.519 413.814
359.589 350.04 406.798
359.025 364.953 390.135
362.191 357.063 390.199
355.728 358.954 385.247
357.85 357.069 398.674
363.835 358.319 404.367
356.768 359.995 414.593
356.559 357.203 407.377
361.851 367.236 402.64
355.867 366.166 408.14
367.766 348.36 393.856
369.929 346.163 402.571
371.994 354.898 402.336
367.335 351.549 408.536
372.692 355.914 393.366
366.617 363.349 387.168
365.776 355.699 396.742
375.269 362.241 399.056
367.205 362.944 398.605
374.308 355.836 410.391
370.603 362.277 406.467
375.736 349.067 397.51

POINT_DATA 42
SCALARS radius double
LOOKUP_TABLE default
4.84636
4.94636
5.09809
5.09809
5.04636
5.09809
5.09809
5.04636
4.84636
5.09809
4.24636
4.34636
5.09809
5.02621
5.0053
4.48931
5.07271
4.58931
5.02167
5.04636
5.04636
5.09809
5.06699
5.09809
5.02167
5.08666
5.08666
5.04636
5.09809
5.09809
5.07271
5.07271
5.04636
5.09809
5.07271
5.03728
5.0053
5.09809
5.0053
5.09809
5.09809
5.07271

SCALARS status double
LOOKUP_TABLE default
1
1
1
1
1
1
1
1
1
1
1
1
2
1
1
1
1
1
2
1
1
1
2
1
2
1
1
1
1
1
1
1
1
1
1
1
1
1
1
1
1
1

SCALARS concentration double
LOOKUP_TABLE default
36.1598
31.4797
34.8841
34.1486
31.4797
35.2488
38.7217
36.1598
36.1598
37.7052
40.0813
40.0813
41.0234
34.5724
34.7349
34.5724
35.3646
34.5724
38.4437
34.8947
34.8947
39.559
41.2083
39.559
37.2095
39.3465
38.4057
36.1598
42.7689
40.7864
37.3151
36.8274
41.4465
38.6127
42.303
45.1004
42.438
46.7943
42.438
42.5522
44.3902
40.1272

SCALARS fibres double
LOOKUP_TABLE default
0
0
0
0
0
0
0
0
0
0
0
0
0
0
0
0
0
0
0
0
0
0
0
0
0
0
0
0
0
0
0
0
0
0
0
0
0
0
0
0
0
0

SCALARS phenot double
LOOKUP_TABLE default
7
7
7
7
7
7
7
7
7
7
7
7
7
7
7
7
7
7
7
7
7
7
7
7
7
7
7
7
7
7
7
7
7
7
7
7
7
7
7
7
7
7

SCALARS cont_pheno double
LOOKUP_TABLE default
0.5
0.5
0.5
0.5
0.5
0.5
0.5
0.5
0.5
0.5
0.5
0.5
0.45
0.5
0.5
0.5
0.5
0.5
0.45
0.5
0.5
0.5
0.45
0.5
0.45
0.5
0.5
0.5
0.5
0.5
0.5
0.5
0.5
0.5
0.5
0.5
0.5
0.5
0.5
0.5
0.5
0.5

SCALARS name double
LOOKUP_TABLE default
39
38
0
5
23
19
18
33
11
28
16
41
14
34
9
29
27
40
24
4
36
8
2
32
30
1
12
37
7
17
26
13
20
21
15
6
35
22
31
3
10
25

SCALARS interaction_phenotype double
LOOKUP_TABLE default
0
0
0
0
0
0
0
0
0
0
0
0
0
0
0
0
0
0
0
0
0
0
0
0
0
0
0
0
0
0
0
0
0
0
0
0
0
0
0
0
0
0

SCALARS vessel_interaction double
LOOKUP_TABLE default
0
0
0
0
0
0
0
0
0
0
0
0
0
0
0
0
0
0
0
0
0
0
0
0
0
0
0
0
0
0
0
0
0
0
0
0
0
0
0
0
0
0

SCALARS is_follower double
LOOKUP_TABLE default
1
1
1
1
1
1
1
1
1
1
1
1
1
1
1
1
1
1
1
1
1
1
1
1
1
1
1
1
1
1
1
1
1
1
1
1
1
1
1
1
1
1

SCALARS polarised double
LOOKUP_TABLE default
0
0
0
0
0
0
0
0
0
0
0
0
0
0
0
0
0
0
0
0
0
0
0
0
0
0
0
0
0
0
0
0
0
0
0
0
0
0
0
0
0
0

