# vtk DataFile Version 2.0
Unstructured grid legacy vtk file with point scalar data
ASCII

DATASET UNSTRUCTURED_GRID
POINTS 8 double
355.241 363.786 401.683
352.064 359.28 405.625
360.639 350.95 401.896
360.885 360.166 391.894
358.08 357.798 398.852
361.418 359.345 406.071
367.781 353.106 406.332
366.388 357.466 399.393

POINT_DATA 8
SCALARS radius double
LOOKUP_TABLE default
4.58666
4.48666
5.03728
4.98666
5.08666
5.02287
5.03728
5.08666

SCALARS status double
LOOKUP_TABLE default
1
1
1
1
1
1
1
1

SCALARS concentration double
LOOKUP_TABLE default
38.6805
38.6805
36.6931
38.6805
38.6805
39.8573
40.0793
41.0269

SCALARS fibres double
LOOKUP_TABLE default
0
0
0
0
0
0
0
0

SCALARS phenot double
LOOKUP_TABLE default
7
7
7
7
7
7
7
7

SCALARS cont_pheno double
LOOKUP_TABLE default
0.5
0.5
0.5
0.5
0.5
0.5
0.5
0.5

SCALARS name double
LOOKUP_TABLE default
7
5
4
6
0
1
3
2

SCALARS interaction_phenotype double
LOOKUP_TABLE default
0
0
0
0
0
0
0
0

SCALARS vessel_interaction double
LOOKUP_TABLE default
0
0
0
0
0
0
0
0

SCALARS is_follower double
LOOKUP_TABLE default
1
1
1
1
1
1
1
1

SCALARS polarised double
LOOKUP_TABLE default
0
0
0
0
0
0
0
0

