# vtk DataFile Version 2.0
Unstructured grid legacy vtk file with point scalar data
ASCII

DATASET UNSTRUCTURED_GRID
POINTS 34 double
352.921 352.32 403.246
350.793 354.195 411.696
347.958 347.318 406.928
352.216 356.182 392.236
354.624 363.61 398.056
353.326 359.856 404.65
348.994 362.174 409.931
348.974 367.143 402.668
351.493 373.558 397.032
353.28 374.002 405.609
359.203 349.101 393.816
359.428 348.09 385.687
358.753 346.38 402.055
364.094 352.246 399.66
357.785 349.483 410.035
358.398 364.713 391.305
363.892 358.435 392.496
356.102 359.475 385.435
357.929 356.31 398.009
361.206 358.979 405.85
356.447 360.453 413.433
362.377 366.547 401.278
357.079 366.563 407.548
367.837 348.542 393.739
368.244 346.289 402.298
371.738 354.52 401.724
365.563 352.195 408.051
373.548 355.353 409.589
372.18 356.346 393.533
367.189 363.98 386.992
373.991 362.339 399.016
366.203 359.585 399.325
369.052 361.998 406.482
375.623 348.917 397.156

POINT_DATA 34
SCALARS radius double
LOOKUP_TABLE default
5.09809
5.09809
5.09809
5.09809
5.09809
4.99809
4.89809
5.09809
5.09809
5.09809
5.07271
5.07271
5.0053
5.02167
5.09809
5.09809
5.06699
5.09809
5.02167
5.08666
5.08666
5.09809
5.09809
5.07271
5.07271
5.04636
5.09809
5.09809
5.07271
5.03728
5.09809
5.04636
5.09809
5.07271

SCALARS status double
LOOKUP_TABLE default
1
1
1
1
1
1
1
1
1
2
1
1
1
2
1
1
2
1
2
1
1
1
1
1
1
1
1
1
1
1
1
1
1
1

SCALARS concentration double
LOOKUP_TABLE default
34.8841
34.1486
31.4797
35.2488
38.7217
36.1598
36.1598
37.7052
40.0813
41.0234
35.3646
34.5724
34.7349
38.4437
34.8947
39.559
41.2083
39.559
37.2095
39.3465
38.4057
42.7689
40.7864
37.3151
36.8274
41.4465
38.6127
42.5522
42.303
45.1004
46.7943
42.438
44.3902
40.1272

SCALARS fibres double
LOOKUP_TABLE default
0
0
0
0
0
0
0
0
0
0
0
0
0
0
0
0
0
0
0
0
0
0
0
0
0
0
0
0
0
0
0
0
0
0

SCALARS phenot double
LOOKUP_TABLE default
7
7
7
7
7
7
7
7
7
7
7
7
7
7
7
7
7
7
7
7
7
7
7
7
7
7
7
7
7
7
7
7
7
7

SCALARS cont_pheno double
LOOKUP_TABLE default
0.5
0.5
0.5
0.5
0.5
0.5
0.5
0.5
0.5
0.45
0.5
0.5
0.5
0.45
0.5
0.5
0.45
0.5
0.45
0.5
0.5
0.5
0.5
0.5
0.5
0.5
0.5
0.5
0.5
0.5
0.5
0.5
0.5
0.5

SCALARS name double
LOOKUP_TABLE default
0
5
23
19
18
33
11
28
16
14
27
29
9
24
4
8
2
32
30
1
12
7
17
26
13
20
21
3
15
6
22
31
10
25

SCALARS interaction_phenotype double
LOOKUP_TABLE default
0
0
0
0
0
0
0
0
0
0
0
0
0
0
0
0
0
0
0
0
0
0
0
0
0
0
0
0
0
0
0
0
0
0

SCALARS vessel_interaction double
LOOKUP_TABLE default
0
0
0
0
0
0
0
0
0
0
0
0
0
0
0
0
0
0
0
0
0
0
0
0
0
0
0
0
0
0
0
0
0
0

SCALARS is_follower double
LOOKUP_TABLE default
1
1
1
1
1
1
1
1
1
1
1
1
1
1
1
1
1
1
1
1
1
1
1
1
1
1
1
1
1
1
1
1
1
1

SCALARS polarised double
LOOKUP_TABLE default
0
0
0
0
0
0
0
0
0
0
0
0
0
0
0
0
0
0
0
0
0
0
0
0
0
0
0
0
0
0
0
0
0
0

