# vtk DataFile Version 2.0
Unstructured grid legacy vtk file with point scalar data
ASCII

DATASET UNSTRUCTURED_GRID
POINTS 4 double
357.155 358.755 400.552
362.254 358.253 407.49
366.137 354.985 403.659
366.288 357.05 398.932

POINT_DATA 4
SCALARS radius double
LOOKUP_TABLE default
5.0685
5.02287
4.08666
4.18666

SCALARS status double
LOOKUP_TABLE default
1
1
1
1

SCALARS concentration double
LOOKUP_TABLE default
38.3556
39.9167
39.9167
39.9167

SCALARS fibres double
LOOKUP_TABLE default
0
0
0
0

SCALARS phenot double
LOOKUP_TABLE default
7
7
7
7

SCALARS cont_pheno double
LOOKUP_TABLE default
0.5
0.5
0.5
0.5

SCALARS name double
LOOKUP_TABLE default
0
1
3
2

SCALARS interaction_phenotype double
LOOKUP_TABLE default
0
0
0
0

SCALARS vessel_interaction double
LOOKUP_TABLE default
0
0
0
0

SCALARS is_follower double
LOOKUP_TABLE default
1
1
1
1

SCALARS polarised double
LOOKUP_TABLE default
0
0
0
0

