# vtk DataFile Version 2.0
Unstructured grid legacy vtk file with point scalar data
ASCII

DATASET UNSTRUCTURED_GRID
POINTS 140 double
339.743 341.431 402.628
345.611 341.071 396.479
343.717 349.587 381.874
342.924 353.959 393.233
343.185 351.913 402.149
340.125 347.701 408.574
345.573 354.416 411.087
337.817 361.554 409.718
345.687 361.747 406.105
338.53 365.707 402.284
343.71 367.243 411.816
340.397 374.982 410.961
344.871 365.552 420.439
343.127 375.846 390.068
351.939 336.22 384.097
353.108 340.783 391.848
347.017 344.463 404.426
352.248 337.918 399.669
352.32 338.58 408.263
347.221 345.186 412.555
355.077 351.496 377.85
349.326 349.451 391.949
348.166 355.396 385.989
353.061 345.954 398.92
350.761 354.47 404.065
353.999 346.906 408.032
353.937 354.661 412.062
349.3 348.018 420.816
354.456 361.5 384.221
354.917 364.156 376.58
348.976 361.902 390.74
350.112 356.656 396.197
352.543 363.981 398.863
350.169 362.123 414.056
354.039 360.866 407.037
353.013 364.093 421.718
349.264 371.155 393.919
349.845 368.507 385.757
355.507 367.06 391.115
345.786 369.022 401.446
351.688 368.123 407.756
348.363 374.792 406.549
355.052 369.341 415.345
347.37 372.267 416.672
349.352 371.812 424.089
345.899 377.573 398.695
352.158 381.093 403.798
352.531 382.506 395.921
355.035 378.304 412.378
346.841 378.981 413.055
349.922 382.184 419.22
364.879 343.824 380.539
358.548 341.551 385.523
361.302 343.46 393.618
358.584 341.145 403.2
360.115 344.259 412.47
357.684 352.608 372.413
357.523 353.801 384.916
356.046 347.611 389.303
363.961 348.6 386.657
361.054 351.661 392.799
361.657 347.97 400.76
356.19 352.744 398.203
359.991 352.012 407.519
356.755 348.886 417.237
364.69 350.608 415.019
362.409 349.327 423.293
360.355 358.204 378.758
357.362 358.912 391.872
361.484 364.175 396.587
359.044 358.857 401.851
359.299 361.828 412.934
365.172 360.282 405.989
365.233 356.068 410.108
360.307 363.079 420.591
358.471 368.514 383.333
362.739 369.412 390.522
356.784 371.664 399.824
364.522 374.83 398.693
357.284 369.284 395.987
360.605 366.06 405.668
357.911 373.811 406.398
359.465 376.661 381.903
357.408 375.898 392.808
363.761 379.358 387.895
359.284 379.632 400.337
366.341 339.426 374.006
369.036 341.412 393.988
366.248 338.246 387.36
368.954 345.565 401.584
372.722 339.24 403.577
365.503 341.859 407.663
372.808 340.884 410.674
369.489 351.1 380.45
371.995 348.544 384.724
371.657 348.959 389.419
367.915 349.855 394.976
373.6 353.102 400.925
374.721 346.033 395.877
368.402 350.995 407.457
372.403 350.695 414.28
371.032 359.441 383.319
373.259 363.138 376.236
367.931 356.921 375.901
365.875 356.231 389.093
368.861 363.914 392.496
373.469 356.129 392.591
366.233 357.422 397.398
371.491 360.493 402.874
373.096 358.064 409.811
366.07 359.656 422.804
367.037 358.246 415.709
374.617 366.72 383.704
366.387 366.651 380.214
368.858 372.339 386.114
371.621 372.196 394.238
367.573 367.953 400.38
366.816 371.533 407.923
372.259 366.153 412.106
365.492 375.641 392.764
378.409 336.719 383.062
375.887 341.875 389.387
380.502 340.197 397.044
377.404 345.654 402.733
379.189 349.676 391.261
382.184 351.503 398.918
378.396 346.895 410.179
380.819 354.838 408.085
379.225 355.197 416.841
377.36 346.639 418.4
377.73 363.135 389.638
382.647 357.058 392.666
379.747 359.374 400.539
376.964 365.46 405.891
375.627 356.415 412.95
375.484 365.943 397.427
383.007 367.545 400.885
378.972 374.466 397.34
377.933 373.078 408.366
387.636 356.333 403.722

POINT_DATA 140
SCALARS radius double
LOOKUP_TABLE default
5.07271
5.0053
5.0053
5.04636
5.0053
5.0053
5.09809
5.07271
5.0053
5.07271
5.0053
5.08931
5.02621
5.0053
5.08931
5.03939
5.07271
5.0053
5.0053
5.07271
4.33939
5.03939
5.0053
5.0053
5.0053
5.07271
5.02621
5.0053
5.04636
5.04636
5.03653
5.03653
5.09809
5.0053
5.02621
5.08666
5.07271
5.07271
5.07271
5.09809
5.04636
5.08931
5.04636
5.08931
5.02621
5.0053
5.07271
5.07271
5.0053
5.08931
5.0053
5.09976
5.08931
5.03939
5.0053
5.0053
4.33939
5.0857
5.03939
5.08931
5.09976
5.03939
5.09976
5.03653
5.0053
5.0053
5.0053
5.02167
5.00492
5.00492
5.07271
5.07271
4.43728
4.43728
4.62621
5.0053
5.00492
4.14588
4.58931
4.14588
5.04636
5.0053
5.0053
5.07271
5.0053
5.0053
5.09976
5.02621
5.03939
5.02167
4.62621
5.0053
4.52621
5.08931
4.03939
4.13939
5.07271
5.04636
5.03939
5.04636
5.0053
5.07271
5.0053
5.07271
5.0857
5.00492
5.07271
5.07271
5.08931
4.07271
4.62621
5.04636
5.0053
5.04636
5.04636
5.02621
5.02621
5.04636
5.0053
4.48931
5.03939
5.09976
5.09976
5.03939
5.08931
5.07271
5.08931
5.07271
5.07271
5.0053
5.0053
5.0053
5.07271
5.08931
4.07271
5.04636
5.08931
5.08931
5.02621
5.07271

SCALARS status double
LOOKUP_TABLE default
1
1
1
1
1
1
1
2
1
2
2
1
2
1
1
1
1
1
1
1
1
1
1
1
1
1
1
1
1
1
2
2
1
1
1
1
1
1
1
1
1
1
1
1
1
1
2
2
2
1
2
1
1
1
1
1
1
2
1
1
1
1
1
2
1
1
1
2
2
2
1
1
1
1
1
1
2
2
1
2
1
2
1
1
1
1
1
1
1
2
1
1
1
1
1
1
1
1
1
1
1
1
1
1
2
2
1
1
1
1
1
1
2
1
1
1
1
1
1
1
1
1
1
1
1
1
1
1
1
1
2
1
1
1
1
1
1
1
1
1

SCALARS concentration double
LOOKUP_TABLE default
28.3532
28.5905
30.7587
32.5606
32.0765
29.6742
33.2249
32.7328
35.008
32.7328
34.6758
37.7986
35.6326
35.8258
31.1079
32.001
30.5981
29.8174
29.8174
30.9601
34.3209
33.9265
33.7848
33.0077
35.008
32.4577
36.8888
32.0345
37.4387
38.7421
36.6942
35.358
38.3945
36.5066
36.8888
38.9797
38.0659
40.1217
40.1217
36.6748
38.7876
37.7986
41.974
38.4875
39.401
38.115
42.6008
42.9217
43.9501
38.4875
41.7015
34.2496
31.1079
32.001
32.9456
34.2852
34.3209
36.1024
33.9265
35.5252
35.359
35.359
35.359
36.2489
34.7605
37.2243
37.2243
39.7063
40.8037
40.8037
39.0298
40.0661
41.8676
41.8676
40.0661
42.3246
44.7615
43.3088
49.5791
43.3088
42.0318
44.1799
45.499
42.7738
47.6384
46.6075
34.2496
35.8608
32.6227
36.5718
35.7807
34.2852
35.7807
39.1108
39.1108
39.1108
38.5365
42.8105
38.3316
38.4343
40.1147
43.4315
49.8386
43.4315
39.9684
45.2533
43.1428
41.7445
47.4371
43.7783
40.0661
41.3352
49.1747
46.7599
50.288
49.5791
45.1709
48.7996
49.1236
49.5791
34.9038
36.2744
36.0888
38.3316
40.8087
43.6934
39.4357
44.7028
44.7028
40.1147
47.7895
47.3992
49.0446
47.4371
43.7783
49.9074
53.5971
53.5971
54.0964
48.3756

SCALARS fibres double
LOOKUP_TABLE default
0
0
0
0
0
0
0
0
0
0
0
0
0
0
0
0
0
0
0
0
0
0
0
0
0
0
0
0
0
0
0
0
0
0
0
0
0
0
0
0
0
0
0
0
0
0
0
0
0
0
0
0
0
0
0
0
0
0
0
0
0
0
0
0
0
0
0
0
0
0
0
0
0
0
0
0
0
0
0
0
0
0
0
0
0
0
0
0
0
0
0
0
0
0
0
0
0
0
0
0
0
0
0
0
0
0
0
0
0
0
0
0
0
0
0
0
0
0
0
0
0
0
0
0
0
0
0
0
0
0
0
0
0
0
0
0
0
0
0
0

SCALARS phenot double
LOOKUP_TABLE default
7
7
7
7
7
7
7
7
7
7
7
7
7
7
7
7
7
7
7
7
7
7
7
7
7
7
7
7
7
7
7
7
7
7
7
7
7
7
7
7
7
7
7
7
7
7
7
7
7
7
7
7
7
7
7
7
7
7
7
7
7
7
7
7
7
7
7
7
7
7
7
7
7
7
7
7
7
7
7
7
7
7
7
7
7
7
7
7
7
7
7
7
7
7
7
7
7
7
7
7
7
7
7
7
7
7
7
7
7
7
7
7
7
7
7
7
7
7
7
7
7
7
7
7
7
7
7
7
7
7
7
7
7
7
7
7
7
7
7
7

SCALARS cont_pheno double
LOOKUP_TABLE default
0.5
0.5
0.5
0.5
0.5
0.5
0.5
0.45
0.5
0.45
0.45
0.5
0.45
0.5
0.5
0.5
0.5
0.5
0.5
0.5
0.5
0.5
0.5
0.5
0.5
0.5
0.5
0.5
0.5
0.5
0.45
0.45
0.5
0.5
0.5
0.5
0.5
0.5
0.5
0.5
0.5
0.5
0.5
0.5
0.5
0.5
0.45
0.45
0.45
0.5
0.45
0.5
0.5
0.5
0.5
0.5
0.5
0.45
0.5
0.5
0.5
0.5
0.5
0.45
0.5
0.5
0.5
0.45
0.45
0.45
0.5
0.5
0.5
0.5
0.5
0.5
0.45
0.45
0.5
0.45
0.5
0.45
0.5
0.5
0.5
0.5
0.5
0.5
0.5
0.45
0.5
0.5
0.5
0.5
0.5
0.5
0.5
0.5
0.5
0.5
0.5
0.5
0.5
0.5
0.45
0.45
0.5
0.5
0.5
0.5
0.5
0.5
0.45
0.5
0.5
0.5
0.5
0.5
0.5
0.5
0.5
0.5
0.5
0.5
0.5
0.5
0.5
0.5
0.5
0.5
0.45
0.5
0.5
0.5
0.5
0.5
0.5
0.5
0.5
0.5

SCALARS name double
LOOKUP_TABLE default
81
45
90
19
0
23
5
108
33
97
39
115
48
74
118
80
103
117
38
78
29
79
50
66
112
105
109
65
32
104
44
30
18
11
37
12
16
116
8
28
17
82
53
100
95
41
56
85
42
128
59
40
34
126
9
36
136
73
130
62
27
107
124
55
4
47
119
52
114
61
96
67
1
135
110
87
92
69
111
137
71
14
94
99
51
68
122
26
102
24
134
131
13
120
138
86
35
20
25
21
3
77
89
125
2
76
15
93
121
72
132
43
6
70
83
46
31
7
10
133
64
54
88
129
60
98
75
57
123
127
106
22
63
84
139
49
58
113
101
91

SCALARS interaction_phenotype double
LOOKUP_TABLE default
0
0
0
0
0
0
0
0
0
0
0
0
0
0
0
0
0
0
0
0
0
0
0
0
0
0
0
0
0
0
0
0
0
0
0
0
0
0
0
0
0
0
0
0
0
0
0
0
0
0
0
0
0
0
0
0
0
0
0
0
0
0
0
0
0
0
0
0
0
0
0
0
0
0
0
0
0
0
0
0
0
0
0
0
0
0
0
0
0
0
0
0
0
0
0
0
0
0
0
0
0
0
0
0
0
0
0
0
0
0
0
0
0
0
0
0
0
0
0
0
0
0
0
0
0
0
0
0
0
0
0
0
0
0
0
0
0
0
0
0

SCALARS vessel_interaction double
LOOKUP_TABLE default
0
0
0
0
0
0
0
0
0
0
0
0
0
0
0
0
0
0
0
0
0
0
0
0
0
0
0
0
0
0
0
0
0
0
0
0
0
0
0
0
0
0
0
0
0
0
0
0
0
0
0
0
0
0
0
0
0
0
0
0
0
0
0
0
0
0
0
0
0
0
0
0
0
0
0
0
0
0
0
0
0
0
0
0
0
0
0
0
0
0
0
0
0
0
0
0
0
0
0
0
0
0
0
0
0
0
0
0
0
0
0
0
0
0
0
0
0
0
0
0
0
0
0
0
0
0
0
0
0
0
0
0
0
0
0
0
0
0
0
0

SCALARS is_follower double
LOOKUP_TABLE default
1
1
1
1
1
1
1
1
1
1
1
1
1
1
1
1
1
1
1
1
1
1
1
1
1
1
1
1
1
1
1
1
1
1
1
1
1
1
1
1
1
1
1
1
1
1
1
1
1
1
1
1
1
1
1
1
1
1
1
1
1
1
1
1
1
1
1
1
1
1
1
1
1
1
1
1
1
1
1
1
1
1
1
1
1
1
1
1
1
1
1
1
1
1
1
1
1
1
1
1
1
1
1
1
1
1
1
1
1
1
1
1
1
1
1
1
1
1
1
1
1
1
1
1
1
1
1
1
1
1
1
1
1
1
1
1
1
1
1
1

SCALARS polarised double
LOOKUP_TABLE default
0
0
0
0
0
0
0
0
0
0
0
0
0
0
0
0
0
0
0
0
0
0
0
0
0
0
0
0
0
0
0
0
0
0
0
0
0
0
0
0
0
0
0
0
0
0
0
0
0
0
0
0
0
0
0
0
0
0
0
0
0
0
0
0
0
0
0
0
0
0
0
0
0
0
0
0
0
0
0
0
0
0
0
0
0
0
0
0
0
0
0
0
0
0
0
0
0
0
0
0
0
0
0
0
0
0
0
0
0
0
0
0
0
0
0
0
0
0
0
0
0
0
0
0
0
0
0
0
0
0
0
0
0
0
0
0
0
0
0
0

