# vtk DataFile Version 2.0
Unstructured grid legacy vtk file with point scalar data
ASCII

DATASET UNSTRUCTURED_GRID
POINTS 127 double
340.299 341.25 403.032
345.512 341.132 395.794
343.413 349.439 382.206
344.806 354.309 393.916
343.881 352.278 402.582
340.916 348.002 408.732
337.533 361.721 408.734
345.574 362.196 405.59
338.459 365.893 401.625
344.152 367.105 411.352
341.346 374.59 410.611
345.176 366.089 420.066
342.724 375.472 390.431
352.378 336.614 383.821
347.234 344.641 404.123
352.394 339.177 400.159
352.333 338.624 408.063
352.181 350.065 390.85
353.7 346.981 399.431
347.315 345.809 412.891
345.763 354.469 410.663
354.084 346.861 408.562
353.97 354.674 411.252
349.809 348.431 420.65
354.367 361.966 384.8
355.557 363.875 376.824
348.253 355.763 385.596
349.936 360.657 391.59
351.582 355.735 397.212
352.468 364.098 399.551
350.281 356.299 404.024
350.086 361.881 413.688
354.65 361.056 406.857
353.114 364.452 421.456
348.973 370.872 394.329
350.231 368.399 386.796
346.493 369.359 401.619
352.092 367.805 407.741
348.569 374.448 407.701
347.872 373.39 415.874
349.216 372.178 424.211
355.389 369.534 415.056
346.259 377.88 398.379
352.588 380.216 404.124
352.796 382.375 395.881
354.052 377.59 412.503
349.309 381.675 417.319
359.162 340.725 384.117
364.401 345.123 381.965
355.746 342.933 391.604
360.272 344.723 392.232
359.31 341.732 403.67
361.76 344.62 411.164
356.051 351.687 376.856
357.218 354.182 384.966
363.117 348.299 387.426
360 351.096 392.456
361.796 348.856 400.132
356.891 352.572 396.977
360.199 352.367 407.124
356.797 349.177 416.461
364.591 350.539 415.85
362.566 349.207 423.153
361.397 358.017 378.736
365.114 356.586 389.123
357.917 358.639 391.931
361.421 363.843 396.891
358.864 357.824 401.443
358.662 361.879 412.874
364.99 359.184 406.427
361.258 362.115 420.735
359.015 368.596 383.463
355.81 366.701 391.869
362.53 370.03 390.893
356.458 375.067 393.123
357.823 370.417 399.303
364.422 374.735 397.242
360.891 366.009 405.648
357.847 373.763 406.305
359.576 377.069 382.039
363.738 377.833 389.578
359.197 379.45 400.215
365.965 341.319 376.427
368.758 342.631 393.923
365.895 338.335 387.671
367.902 344.93 402.472
372.206 341.342 408.606
368.463 350.751 381.068
370.649 350.122 387.835
367.671 350.522 395.04
372.629 353.775 401.051
375.286 346.179 399.122
367.793 351.13 408.713
373.696 349.385 414.274
370.003 359.334 382.85
373.673 362.729 376.384
367.946 356.037 379.248
368.961 364.487 391.897
373.079 356.63 392.731
366.442 358.393 397.252
371.433 360.727 403.099
365.974 358.123 414.517
373.426 357.621 410.357
373.232 365.844 384.237
366.688 366.633 379.909
369.036 372.084 386.516
371.175 372.451 394.5
367.927 367.103 400.486
366.513 371.239 407.821
372.504 366.483 411.86
378.406 337.892 382.214
376.206 341.684 389.661
380.595 340.412 396.99
377.618 349.812 391.605
381.921 351.837 399.081
378.306 347.399 407.532
380.968 355.209 408.909
379.361 354.618 415.922
377.274 363.078 390.277
381.874 356.809 392.687
379.322 359.699 400.189
375.751 365.67 404.724
375.678 366.486 397.27
382.929 366.974 401.523
379.611 373.727 397.401
378.062 372.106 407.529
387.137 356.195 404.503

POINT_DATA 127
SCALARS radius double
LOOKUP_TABLE default
5.07271
5.0053
5.0053
5.04636
5.0053
5.0053
5.07271
5.0053
5.07271
5.0053
5.08931
5.02621
5.0053
5.08931
5.07271
5.0053
5.0053
5.08931
5.0053
5.07271
5.09809
5.07271
5.02621
5.0053
5.04636
5.04636
5.0053
5.03653
5.03653
5.09809
5.0053
5.0053
5.02621
5.08666
5.07271
5.07271
5.09809
5.04636
5.08931
5.02621
5.02621
5.04636
5.0053
5.07271
5.07271
5.0053
5.0053
5.08931
4.79976
4.13939
4.13939
5.0053
5.04636
5.08931
5.0857
5.08931
4.59976
5.03939
4.59976
5.03653
5.0053
5.0053
5.0053
5.02167
5.0857
5.00492
5.00492
5.07271
5.07271
5.08666
5.07271
5.0053
5.07271
5.00492
5.07271
5.09749
5.02621
5.04636
5.0053
5.0053
5.0053
5.0053
4.79976
5.02621
5.03939
5.02167
5.07271
4.88931
4.98931
5.07271
5.04636
5.08931
5.04636
5.04636
4.17271
5.0053
4.17271
5.00492
5.07271
5.07271
4.88931
5.04636
5.0053
5.0053
5.04636
5.04636
5.02621
5.02621
5.04636
5.0053
5.03939
5.09976
5.09976
5.08931
5.07271
5.08931
4.77271
4.77271
5.0053
5.0053
5.07271
4.88931
5.04636
5.08931
5.08931
5.02621
5.07271

SCALARS status double
LOOKUP_TABLE default
1
1
1
1
1
1
2
1
2
2
1
2
1
1
1
1
1
1
1
1
1
1
1
1
1
1
1
2
2
1
1
1
1
1
1
1
1
1
1
1
1
1
1
2
2
2
2
1
1
1
1
1
1
1
2
1
1
1
1
2
1
1
1
2
2
2
2
1
1
1
1
1
1
2
1
2
1
1
2
1
1
1
1
1
1
2
1
1
1
1
1
1
1
1
1
1
1
2
1
1
1
1
1
2
1
1
1
1
1
1
1
1
1
1
1
1
1
1
2
1
1
1
1
1
1
1
1

SCALARS concentration double
LOOKUP_TABLE default
28.3532
28.5905
30.7587
32.5606
32.0765
29.6742
32.7328
35.008
32.7328
34.6758
37.7986
35.6326
35.8258
31.1079
30.5981
29.8174
29.8174
33.9265
33.0077
30.9601
33.2249
32.4577
36.8888
32.0345
37.4387
38.7421
33.7848
36.6942
35.358
38.3945
35.008
36.5066
36.8888
38.9797
38.0659
40.1217
36.6748
38.7876
37.7986
38.4875
39.401
41.974
38.115
42.6008
42.9217
43.9501
41.7015
31.1079
34.2496
32.001
32.001
32.9456
34.2852
34.3209
36.1024
35.5252
35.359
35.359
35.359
36.2489
34.7605
37.2243
37.2243
39.7063
39.9684
40.8037
40.8037
39.0298
40.0661
41.8676
40.0661
42.3246
40.1217
44.7615
42.7738
43.3088
49.5791
42.0318
44.1799
45.499
47.6384
46.6075
34.2496
35.8608
32.6227
36.5718
35.7807
39.1108
39.1108
38.5365
42.8105
38.3316
38.4343
40.1147
43.4315
49.8386
43.4315
45.2533
43.1428
41.7445
47.4371
41.3352
43.7783
49.1747
46.7599
50.288
49.5791
45.1709
48.7996
49.1236
34.9038
36.2744
36.0888
40.8087
43.6934
39.4357
44.7028
44.7028
47.7895
47.3992
49.0446
47.4371
49.9074
53.5971
53.5971
54.0964
48.3756

SCALARS fibres double
LOOKUP_TABLE default
0
0
0
0
0
0
0
0
0
0
0
0
0
0
0
0
0
0
0
0
0
0
0
0
0
0
0
0
0
0
0
0
0
0
0
0
0
0
0
0
0
0
0
0
0
0
0
0
0
0
0
0
0
0
0
0
0
0
0
0
0
0
0
0
0
0
0
0
0
0
0
0
0
0
0
0
0
0
0
0
0
0
0
0
0
0
0
0
0
0
0
0
0
0
0
0
0
0
0
0
0
0
0
0
0
0
0
0
0
0
0
0
0
0
0
0
0
0
0
0
0
0
0
0
0
0
0

SCALARS phenot double
LOOKUP_TABLE default
7
7
7
7
7
7
7
7
7
7
7
7
7
7
7
7
7
7
7
7
7
7
7
7
7
7
7
7
7
7
7
7
7
7
7
7
7
7
7
7
7
7
7
7
7
7
7
7
7
7
7
7
7
7
7
7
7
7
7
7
7
7
7
7
7
7
7
7
7
7
7
7
7
7
7
7
7
7
7
7
7
7
7
7
7
7
7
7
7
7
7
7
7
7
7
7
7
7
7
7
7
7
7
7
7
7
7
7
7
7
7
7
7
7
7
7
7
7
7
7
7
7
7
7
7
7
7

SCALARS cont_pheno double
LOOKUP_TABLE default
0.5
0.5
0.5
0.5
0.5
0.5
0.45
0.5
0.45
0.45
0.5
0.45
0.5
0.5
0.5
0.5
0.5
0.5
0.5
0.5
0.5
0.5
0.5
0.5
0.5
0.5
0.5
0.45
0.45
0.5
0.5
0.5
0.5
0.5
0.5
0.5
0.5
0.5
0.5
0.5
0.5
0.5
0.5
0.45
0.45
0.45
0.45
0.5
0.5
0.5
0.5
0.5
0.5
0.5
0.45
0.5
0.5
0.5
0.5
0.45
0.5
0.5
0.5
0.45
0.45
0.45
0.45
0.5
0.5
0.5
0.5
0.5
0.5
0.45
0.5
0.45
0.5
0.5
0.45
0.5
0.5
0.5
0.5
0.5
0.5
0.45
0.5
0.5
0.5
0.5
0.5
0.5
0.5
0.5
0.5
0.5
0.5
0.45
0.5
0.5
0.5
0.5
0.5
0.45
0.5
0.5
0.5
0.5
0.5
0.5
0.5
0.5
0.5
0.5
0.5
0.5
0.5
0.5
0.45
0.5
0.5
0.5
0.5
0.5
0.5
0.5
0.5

SCALARS name double
LOOKUP_TABLE default
81
45
90
19
0
23
108
33
97
39
115
48
74
118
103
117
38
79
66
78
5
105
109
65
32
104
50
44
30
18
112
11
37
12
16
116
28
17
82
100
95
53
41
56
85
42
59
34
40
80
126
9
36
29
73
62
27
107
124
55
4
47
119
52
2
114
61
96
67
1
110
87
8
92
99
69
111
71
14
94
51
68
122
26
102
24
13
120
86
35
20
25
21
3
77
89
125
76
15
93
121
43
72
6
70
83
46
31
7
10
64
54
88
60
98
75
57
123
106
22
63
84
49
58
113
101
91

SCALARS interaction_phenotype double
LOOKUP_TABLE default
0
0
0
0
0
0
0
0
0
0
0
0
0
0
0
0
0
0
0
0
0
0
0
0
0
0
0
0
0
0
0
0
0
0
0
0
0
0
0
0
0
0
0
0
0
0
0
0
0
0
0
0
0
0
0
0
0
0
0
0
0
0
0
0
0
0
0
0
0
0
0
0
0
0
0
0
0
0
0
0
0
0
0
0
0
0
0
0
0
0
0
0
0
0
0
0
0
0
0
0
0
0
0
0
0
0
0
0
0
0
0
0
0
0
0
0
0
0
0
0
0
0
0
0
0
0
0

SCALARS vessel_interaction double
LOOKUP_TABLE default
0
0
0
0
0
0
0
0
0
0
0
0
0
0
0
0
0
0
0
0
0
0
0
0
0
0
0
0
0
0
0
0
0
0
0
0
0
0
0
0
0
0
0
0
0
0
0
0
0
0
0
0
0
0
0
0
0
0
0
0
0
0
0
0
0
0
0
0
0
0
0
0
0
0
0
0
0
0
0
0
0
0
0
0
0
0
0
0
0
0
0
0
0
0
0
0
0
0
0
0
0
0
0
0
0
0
0
0
0
0
0
0
0
0
0
0
0
0
0
0
0
0
0
0
0
0
0

SCALARS is_follower double
LOOKUP_TABLE default
1
1
1
1
1
1
1
1
1
1
1
1
1
1
1
1
1
1
1
1
1
1
1
1
1
1
1
1
1
1
1
1
1
1
1
1
1
1
1
1
1
1
1
1
1
1
1
1
1
1
1
1
1
1
1
1
1
1
1
1
1
1
1
1
1
1
1
1
1
1
1
1
1
1
1
1
1
1
1
1
1
1
1
1
1
1
1
1
1
1
1
1
1
1
1
1
1
1
1
1
1
1
1
1
1
1
1
1
1
1
1
1
1
1
1
1
1
1
1
1
1
1
1
1
1
1
1

SCALARS polarised double
LOOKUP_TABLE default
0
0
0
0
0
0
0
0
0
0
0
0
0
0
0
0
0
0
0
0
0
0
0
0
0
0
0
0
0
0
0
0
0
0
0
0
0
0
0
0
0
0
0
0
0
0
0
0
0
0
0
0
0
0
0
0
0
0
0
0
0
0
0
0
0
0
0
0
0
0
0
0
0
0
0
0
0
0
0
0
0
0
0
0
0
0
0
0
0
0
0
0
0
0
0
0
0
0
0
0
0
0
0
0
0
0
0
0
0
0
0
0
0
0
0
0
0
0
0
0
0
0
0
0
0
0
0

