# vtk DataFile Version 2.0
Unstructured grid legacy vtk file with point scalar data
ASCII

DATASET UNSTRUCTURED_GRID
POINTS 25 double
354.41 354.338 403.049
351.462 353.468 410.816
349.551 349.887 408.01
354.904 362.07 399.261
350.412 360.996 406.852
352.221 370.565 398.228
352.741 372.553 406.892
356.105 354.596 394.626
360.961 349.269 399.768
357.887 348.552 407.655
357.209 362.417 391.039
365.321 361.426 389.199
362.009 359.143 395.198
361.282 359.101 404.552
361.263 358.025 399.164
356.677 358.958 412.133
362.812 365.794 399.541
357.916 365.978 406.664
371.768 352.746 394.409
367.091 355.254 399.688
369.779 348.448 401.237
372.753 355.187 408.305
365.619 353.193 407.15
372.909 364.059 400.74
367.641 362.821 405.198

POINT_DATA 25
SCALARS radius double
LOOKUP_TABLE default
5.09809
3.99809
4.09809
5.03728
5.03728
5.09809
5.09809
5.09809
5.04636
5.09809
5.03728
5.03728
4.06699
5.08666
4.06699
5.08666
5.09809
5.09809
5.0053
4.99809
5.0053
4.69809
4.79809
4.49809
4.49809

SCALARS status double
LOOKUP_TABLE default
1
1
1
1
1
1
1
1
1
1
1
1
2
1
2
1
1
1
1
1
1
1
1
1
1

SCALARS concentration double
LOOKUP_TABLE default
37.129
34.9205
34.9205
37.129
36.7133
39.4567
40.7269
37.129
36.5693
34.115
38.6713
41.8417
40.6326
39.8125
40.6326
38.6136
41.9429
40.7085
39.8607
40.6326
38.4461
40.9011
40.9011
44.385
44.385

SCALARS fibres double
LOOKUP_TABLE default
0
0
0
0
0
0
0
0
0
0
0
0
0
0
0
0
0
0
0
0
0
0
0
0
0

SCALARS phenot double
LOOKUP_TABLE default
7
7
7
7
7
7
7
7
7
7
7
7
7
7
7
7
7
7
7
7
7
7
7
7
7

SCALARS cont_pheno double
LOOKUP_TABLE default
0.5
0.5
0.5
0.5
0.5
0.5
0.5
0.5
0.5
0.5
0.5
0.5
0.45
0.5
0.45
0.5
0.5
0.5
0.5
0.5
0.5
0.5
0.5
0.5
0.5

SCALARS name double
LOOKUP_TABLE default
0
5
23
18
11
16
14
19
9
4
8
6
2
1
24
12
7
17
15
20
13
3
21
22
10

SCALARS interaction_phenotype double
LOOKUP_TABLE default
0
0
0
0
0
0
0
0
0
0
0
0
0
0
0
0
0
0
0
0
0
0
0
0
0

SCALARS vessel_interaction double
LOOKUP_TABLE default
0
0
0
0
0
0
0
0
0
0
0
0
0
0
0
0
0
0
0
0
0
0
0
0
0

SCALARS is_follower double
LOOKUP_TABLE default
1
1
1
1
1
1
1
1
1
1
1
1
1
1
1
1
1
1
1
1
1
1
1
1
1

SCALARS polarised double
LOOKUP_TABLE default
0
0
0
0
0
0
0
0
0
0
0
0
0
0
0
0
0
0
0
0
0
0
0
0
0

