# vtk DataFile Version 2.0
Unstructured grid legacy vtk file with point scalar data
ASCII

DATASET UNSTRUCTURED_GRID
POINTS 17 double
352.021 354.79 407.618
350.168 362.784 404.704
353.664 367.167 398.618
355.159 369.197 406.801
360.948 350.893 400.193
358.373 347.273 407.217
363.447 361.068 389.299
356.234 361.515 393.14
355.655 357.165 400.487
363.417 358.544 397.455
360.87 365.074 401.502
362.392 357.871 405.642
356.278 361.595 410.481
369.122 352.981 393.805
369.402 349.34 401.245
369.812 354.141 408.127
369.034 362.142 403.104

POINT_DATA 17
SCALARS radius double
LOOKUP_TABLE default
5.03728
5.03728
4.89809
5.03728
5.04636
5.09809
5.03728
5.03728
5.08666
5.03728
4.99809
5.08666
5.08666
5.0053
5.0053
5.03728
5.03728

SCALARS status double
LOOKUP_TABLE default
1
1
1
1
1
1
1
1
1
1
1
1
1
1
1
1
1

SCALARS concentration double
LOOKUP_TABLE default
36.301
36.301
39.8896
39.8896
36.7462
36.7462
41.2827
39.0978
36.8838
40.5739
39.8896
39.728
39.728
36.7462
36.7462
40.6014
40.5739

SCALARS fibres double
LOOKUP_TABLE default
0
0
0
0
0
0
0
0
0
0
0
0
0
0
0
0
0

SCALARS phenot double
LOOKUP_TABLE default
7
7
7
7
7
7
7
7
7
7
7
7
7
7
7
7
7

SCALARS cont_pheno double
LOOKUP_TABLE default
0.5
0.5
0.5
0.5
0.5
0.5
0.5
0.5
0.5
0.5
0.5
0.5
0.5
0.5
0.5
0.5
0.5

SCALARS name double
LOOKUP_TABLE default
5
11
16
14
9
4
6
8
0
2
7
1
12
15
13
3
10

SCALARS interaction_phenotype double
LOOKUP_TABLE default
0
0
0
0
0
0
0
0
0
0
0
0
0
0
0
0
0

SCALARS vessel_interaction double
LOOKUP_TABLE default
0
0
0
0
0
0
0
0
0
0
0
0
0
0
0
0
0

SCALARS is_follower double
LOOKUP_TABLE default
1
1
1
1
1
1
1
1
1
1
1
1
1
1
1
1
1

SCALARS polarised double
LOOKUP_TABLE default
0
0
0
0
0
0
0
0
0
0
0
0
0
0
0
0
0

