# vtk DataFile Version 2.0
Unstructured grid legacy vtk file with point scalar data
ASCII

DATASET UNSTRUCTURED_GRID
POINTS 6 double
353.397 359.501 404.54
360.535 352.08 402.012
358.611 358.851 397.9
361.482 358.889 406.652
367.906 353.146 407.059
366.862 357.186 399.648

POINT_DATA 6
SCALARS radius double
LOOKUP_TABLE default
5.02287
5.03728
5.02287
5.02287
5.03728
5.08666

SCALARS status double
LOOKUP_TABLE default
1
1
1
1
1
1

SCALARS concentration double
LOOKUP_TABLE default
38.6805
36.6931
38.6805
39.8573
40.0793
41.0269

SCALARS fibres double
LOOKUP_TABLE default
0
0
0
0
0
0

SCALARS phenot double
LOOKUP_TABLE default
7
7
7
7
7
7

SCALARS cont_pheno double
LOOKUP_TABLE default
0.5
0.5
0.5
0.5
0.5
0.5

SCALARS name double
LOOKUP_TABLE default
5
4
0
1
3
2

SCALARS interaction_phenotype double
LOOKUP_TABLE default
0
0
0
0
0
0

SCALARS vessel_interaction double
LOOKUP_TABLE default
0
0
0
0
0
0

SCALARS is_follower double
LOOKUP_TABLE default
1
1
1
1
1
1

SCALARS polarised double
LOOKUP_TABLE default
0
0
0
0
0
0

