# vtk DataFile Version 2.0
Unstructured grid legacy vtk file with point scalar data
ASCII

DATASET UNSTRUCTURED_GRID
POINTS 100 double
344.941 341.454 394.691
344.882 344.075 403.468
345.586 349.713 382.991
344.745 352.986 402.716
341.542 348.724 409.882
341.091 364.691 404.879
343.249 364.732 411.152
344.077 374.831 390.972
352.217 339.588 405.314
355.55 351.508 377.758
353.762 350.73 391.702
347.145 354.71 394.471
351.755 347.964 401.826
349.594 346.303 409.975
347.428 354.344 410.681
350.643 347.797 418.538
353.962 362.51 383.835
349.408 355.891 386.092
353.774 359.149 391.723
353.975 355.604 398.987
347.848 360.452 404.401
353.307 364.512 399.261
349.628 361.811 414.125
354.158 358.122 408.879
353.754 364.022 421.328
351.179 372.858 393.472
355.498 367.045 390.907
346.402 369.337 402.205
352.442 366.309 407.253
347.284 371.94 410.694
354.68 368.972 414.948
346.831 367.802 417.907
350.113 371.191 424.189
346.732 376.612 398.628
352.059 378.995 404.061
352.786 381.692 395.898
354.293 377.095 412.226
350.664 382.101 417.352
357.206 339.637 383.721
356.692 342.641 392.123
359.46 343.502 403.598
360.635 345.37 411.263
362.214 348.482 389.303
357.617 354.692 385.601
359.06 349.018 397.633
359.561 351.79 405.519
355.806 352.161 413.199
363.786 350.796 417.403
360.769 358.304 378.216
364.429 357.055 389.386
360.09 361.558 395.885
357.616 359.07 403.368
365.357 358.5 405.337
358.045 361.942 414.132
359.763 368.516 383.523
363.31 368.462 390.754
355.872 375.101 394.148
360.415 365.49 404.741
359.922 369.788 397.59
358.063 373.273 404.784
359.483 376.782 382.42
360.813 375.649 390.038
360.169 378.041 398.194
365.491 342.374 384.335
369.33 344.851 393.64
370.903 342.729 406.464
370.098 350.711 386.854
366.811 351.631 395.014
366.407 347.625 401.78
372.225 355.016 401.182
374.715 347.263 399.906
367.225 350.811 409.297
374.755 351.06 413.79
368.383 358.415 382.145
374.114 362.574 378.03
367.957 363.48 392.491
372.939 356.883 392.53
373.042 364.313 386.501
366.351 358.229 398.005
372.804 363.625 403.926
365.574 357.932 413.363
372.863 357.811 409.332
367.337 367.056 380.228
368.883 372.53 386.922
374.446 365.931 395.434
366.518 365.935 399.782
368.755 372.54 395.87
366.406 370.702 406.449
372.373 366.751 411.524
378.3 338.843 383.021
375.436 341.556 389.99
379.592 340.59 397.312
377.029 349.941 391.996
382.263 353.693 398.281
378.529 346.709 407.52
380.769 354.618 409.8
380.794 358.156 392.48
379.491 360.467 400.567
379.726 368.861 401.719
385.553 355.382 403.847

POINT_DATA 100
SCALARS radius double
LOOKUP_TABLE default
5.0053
5.0053
5.0053
5.0053
5.0053
4.6053
4.5053
5.0053
5.04636
5.08931
5.08931
5.04636
5.0053
5.0053
5.09809
5.0053
5.09809
5.0053
5.03653
5.03653
5.04636
5.09809
5.0053
4.67271
5.08666
4.37271
5.0053
5.09809
5.04636
5.07271
5.04636
4.82621
4.92621
5.0053
5.07271
5.07271
5.0053
5.0053
5.02621
5.08931
5.0053
5.04636
5.08931
5.0857
5.08931
5.03653
5.0053
5.04636
5.02167
5.0857
5.04588
4.67271
5.08666
5.0053
5.0053
5.00492
4.37271
5.04636
5.09749
5.0053
5.0053
4.9053
5.0053
5.08931
5.02621
5.07271
5.02621
5.07271
5.02167
5.04636
5.08931
5.04636
5.04636
5.0053
5.0053
5.00492
5.07271
5.04636
5.07271
5.02621
5.04636
5.0053
5.04636
5.04636
5.04636
5.02621
5.07271
5.04636
5.0053
5.03939
5.09976
5.09976
5.08931
4.47271
5.08931
5.0053
5.0053
5.07271
5.07271
4.47271

SCALARS status double
LOOKUP_TABLE default
1
1
1
1
1
2
2
1
1
1
1
1
1
1
1
1
1
1
2
2
1
1
1
1
1
1
1
1
1
1
1
1
1
1
2
2
2
2
1
1
1
1
1
2
1
2
1
1
2
2
2
1
1
1
1
2
1
1
2
2
1
1
1
1
1
1
1
1
2
1
1
1
1
1
1
2
1
2
1
1
1
1
1
1
1
1
1
1
1
1
1
1
1
1
1
1
1
1
1
1

SCALARS concentration double
LOOKUP_TABLE default
30.3317
30.3317
33.5149
33.2113
30.1613
34.612
34.612
37.6255
30.0282
35.1426
35.7928
34.7507
33.2113
30.1613
33.5408
35.2294
37.6785
33.5149
38.1399
37.3822
34.9252
40.1064
36.42
38.0216
38.8229
41.6385
41.1366
37.6338
39.2392
36.8396
41.2531
36.8396
36.8396
37.6255
42.4548
42.4548
42.8661
42.2138
31.3881
35.573
33.0318
34.9929
35.573
39.2498
35.7928
36.1879
35.2294
37.8461
41.043
39.2498
41.4616
38.0216
40.4972
38.0216
41.1366
41.4616
41.6385
43.5792
41.4616
42.7465
44.956
44.956
41.6385
34.5708
37.177
36.6613
37.177
40.2114
36.908
42.104
40.6115
38.8315
42.8154
44.951
44.951
41.4616
42.7612
44.951
40.2114
45.4736
41.8886
46.6001
44.951
44.951
48.6173
45.4736
46.4154
43.5792
46.6001
37.2127
37.2127
37.2127
40.438
45.6361
40.6115
45.6361
47.43
46.9141
50.7864
45.6361

SCALARS fibres double
LOOKUP_TABLE default
0
0
0
0
0
0
0
0
0
0
0
0
0
0
0
0
0
0
0
0
0
0
0
0
0
0
0
0
0
0
0
0
0
0
0
0
0
0
0
0
0
0
0
0
0
0
0
0
0
0
0
0
0
0
0
0
0
0
0
0
0
0
0
0
0
0
0
0
0
0
0
0
0
0
0
0
0
0
0
0
0
0
0
0
0
0
0
0
0
0
0
0
0
0
0
0
0
0
0
0

SCALARS phenot double
LOOKUP_TABLE default
7
7
7
7
7
7
7
7
7
7
7
7
7
7
7
7
7
7
7
7
7
7
7
7
7
7
7
7
7
7
7
7
7
7
7
7
7
7
7
7
7
7
7
7
7
7
7
7
7
7
7
7
7
7
7
7
7
7
7
7
7
7
7
7
7
7
7
7
7
7
7
7
7
7
7
7
7
7
7
7
7
7
7
7
7
7
7
7
7
7
7
7
7
7
7
7
7
7
7
7

SCALARS cont_pheno double
LOOKUP_TABLE default
0.5
0.5
0.5
0.5
0.5
0.45
0.45
0.5
0.5
0.5
0.5
0.5
0.5
0.5
0.5
0.5
0.5
0.5
0.45
0.45
0.5
0.5
0.5
0.5
0.5
0.5
0.5
0.5
0.5
0.5
0.5
0.5
0.5
0.5
0.45
0.45
0.45
0.45
0.5
0.5
0.5
0.5
0.5
0.45
0.5
0.45
0.5
0.5
0.45
0.45
0.45
0.5
0.5
0.5
0.5
0.45
0.5
0.5
0.45
0.45
0.5
0.5
0.5
0.5
0.5
0.5
0.5
0.5
0.45
0.5
0.5
0.5
0.5
0.5
0.5
0.45
0.5
0.45
0.5
0.5
0.5
0.5
0.5
0.5
0.5
0.5
0.5
0.5
0.5
0.5
0.5
0.5
0.5
0.5
0.5
0.5
0.5
0.5
0.5
0.5

SCALARS name double
LOOKUP_TABLE default
45
81
90
0
23
97
39
74
38
29
79
19
66
78
5
65
32
50
44
30
33
18
11
37
12
16
8
28
17
82
53
48
95
41
56
85
42
59
34
80
9
36
62
73
27
55
4
47
52
2
61
96
1
67
87
92
99
71
69
14
94
51
68
40
26
13
86
35
24
20
25
21
3
77
89
76
15
6
93
84
43
72
70
83
49
31
46
7
10
64
54
88
60
98
75
57
22
63
58
91

SCALARS interaction_phenotype double
LOOKUP_TABLE default
0
0
0
0
0
0
0
0
0
0
0
0
0
0
0
0
0
0
0
0
0
0
0
0
0
0
0
0
0
0
0
0
0
0
0
0
0
0
0
0
0
0
0
0
0
0
0
0
0
0
0
0
0
0
0
0
0
0
0
0
0
0
0
0
0
0
0
0
0
0
0
0
0
0
0
0
0
0
0
0
0
0
0
0
0
0
0
0
0
0
0
0
0
0
0
0
0
0
0
0

SCALARS vessel_interaction double
LOOKUP_TABLE default
0
0
0
0
0
0
0
0
0
0
0
0
0
0
0
0
0
0
0
0
0
0
0
0
0
0
0
0
0
0
0
0
0
0
0
0
0
0
0
0
0
0
0
0
0
0
0
0
0
0
0
0
0
0
0
0
0
0
0
0
0
0
0
0
0
0
0
0
0
0
0
0
0
0
0
0
0
0
0
0
0
0
0
0
0
0
0
0
0
0
0
0
0
0
0
0
0
0
0
0

SCALARS is_follower double
LOOKUP_TABLE default
1
1
1
1
1
1
1
1
1
1
1
1
1
1
1
1
1
1
1
1
1
1
1
1
1
1
1
1
1
1
1
1
1
1
1
1
1
1
1
1
1
1
1
1
1
1
1
1
1
1
1
1
1
1
1
1
1
1
1
1
1
1
1
1
1
1
1
1
1
1
1
1
1
1
1
1
1
1
1
1
1
1
1
1
1
1
1
1
1
1
1
1
1
1
1
1
1
1
1
1

SCALARS polarised double
LOOKUP_TABLE default
0
0
0
0
0
0
0
0
0
0
0
0
0
0
0
0
0
0
0
0
0
0
0
0
0
0
0
0
0
0
0
0
0
0
0
0
0
0
0
0
0
0
0
0
0
0
0
0
0
0
0
0
0
0
0
0
0
0
0
0
0
0
0
0
0
0
0
0
0
0
0
0
0
0
0
0
0
0
0
0
0
0
0
0
0
0
0
0
0
0
0
0
0
0
0
0
0
0
0
0

