# vtk DataFile Version 2.0
Unstructured grid legacy vtk file with point scalar data
ASCII

DATASET UNSTRUCTURED_GRID
POINTS 34 double
353.132 352.507 403.496
350.675 354.143 411.852
347.841 347.244 406.538
352.137 356.24 392.325
354.689 363.285 398.284
353.379 360.022 404.504
349.117 361.813 409.643
349.11 366.917 402.609
351.515 373.583 397.307
353.241 373.861 405.557
359.279 349.456 393.821
359.311 348.089 385.655
359.088 346.561 402.078
363.925 352.38 399.921
357.686 349.618 410.156
358.109 364.502 391.396
363.892 358.462 392.386
355.986 359.636 385.717
357.694 356.24 397.959
360.6 359.118 405.612
356.272 360.379 413.946
362.342 366.275 400.989
356.952 366.48 407.435
367.816 348.395 393.765
368.501 346.187 402.455
371.619 354.488 401.678
365.573 352.392 407.941
373.543 355.132 409.597
371.989 356.319 393.416
367.253 364.201 386.902
373.829 362.541 399.104
366.267 359.768 399.69
369.085 362.25 406.514
375.612 349.087 397.193

POINT_DATA 34
SCALARS radius double
LOOKUP_TABLE default
5.09809
5.09809
5.09809
5.09809
5.09809
4.79809
4.69809
5.09809
5.09809
5.09809
5.07271
5.07271
5.0053
5.02167
5.09809
4.99809
5.06699
4.99809
5.02167
5.08666
5.08666
5.09809
5.09809
5.07271
5.07271
5.04636
5.09809
5.09809
5.07271
5.03728
5.09809
5.04636
5.09809
5.07271

SCALARS status double
LOOKUP_TABLE default
1
1
1
1
1
1
1
1
1
2
1
1
1
2
1
1
2
1
2
1
1
1
1
1
1
1
1
1
1
1
1
1
1
1

SCALARS concentration double
LOOKUP_TABLE default
34.8841
34.1486
31.4797
35.2488
38.7217
36.1598
36.1598
37.7052
40.0813
41.0234
35.3646
34.5724
34.7349
38.4437
34.8947
39.559
41.2083
39.559
37.2095
39.3465
38.4057
42.7689
40.7864
37.3151
36.8274
41.4465
38.6127
42.5522
42.303
45.1004
46.7943
42.438
44.3902
40.1272

SCALARS fibres double
LOOKUP_TABLE default
0
0
0
0
0
0
0
0
0
0
0
0
0
0
0
0
0
0
0
0
0
0
0
0
0
0
0
0
0
0
0
0
0
0

SCALARS phenot double
LOOKUP_TABLE default
7
7
7
7
7
7
7
7
7
7
7
7
7
7
7
7
7
7
7
7
7
7
7
7
7
7
7
7
7
7
7
7
7
7

SCALARS cont_pheno double
LOOKUP_TABLE default
0.5
0.5
0.5
0.5
0.5
0.5
0.5
0.5
0.5
0.45
0.5
0.5
0.5
0.45
0.5
0.5
0.45
0.5
0.45
0.5
0.5
0.5
0.5
0.5
0.5
0.5
0.5
0.5
0.5
0.5
0.5
0.5
0.5
0.5

SCALARS name double
LOOKUP_TABLE default
0
5
23
19
18
33
11
28
16
14
27
29
9
24
4
8
2
32
30
1
12
7
17
26
13
20
21
3
15
6
22
31
10
25

SCALARS interaction_phenotype double
LOOKUP_TABLE default
0
0
0
0
0
0
0
0
0
0
0
0
0
0
0
0
0
0
0
0
0
0
0
0
0
0
0
0
0
0
0
0
0
0

SCALARS vessel_interaction double
LOOKUP_TABLE default
0
0
0
0
0
0
0
0
0
0
0
0
0
0
0
0
0
0
0
0
0
0
0
0
0
0
0
0
0
0
0
0
0
0

SCALARS is_follower double
LOOKUP_TABLE default
1
1
1
1
1
1
1
1
1
1
1
1
1
1
1
1
1
1
1
1
1
1
1
1
1
1
1
1
1
1
1
1
1
1

SCALARS polarised double
LOOKUP_TABLE default
0
0
0
0
0
0
0
0
0
0
0
0
0
0
0
0
0
0
0
0
0
0
0
0
0
0
0
0
0
0
0
0
0
0

