# vtk DataFile Version 2.0
Unstructured grid legacy vtk file with point scalar data
ASCII

DATASET UNSTRUCTURED_GRID
POINTS 11 double
352.747 358.275 407.417
363.029 351.97 400.599
359.41 347.093 406.711
363.481 360.033 389.738
356.079 362.295 393.587
355.634 356.097 399.459
355.768 364.513 402.06
365.27 359.164 397.318
361.369 358.946 405.427
368.708 355.09 406.31
368.804 362.925 403.334

POINT_DATA 11
SCALARS radius double
LOOKUP_TABLE default
5.08666
5.09809
5.09809
5.03728
5.03728
5.08666
5.08666
5.03728
5.02287
5.03728
5.03728

SCALARS status double
LOOKUP_TABLE default
1
1
1
1
1
1
1
1
1
1
1

SCALARS concentration double
LOOKUP_TABLE default
36.301
36.7462
36.7462
41.2827
39.0978
36.8838
39.8896
40.5739
39.728
40.6014
40.5739

SCALARS fibres double
LOOKUP_TABLE default
0
0
0
0
0
0
0
0
0
0
0

SCALARS phenot double
LOOKUP_TABLE default
7
7
7
7
7
7
7
7
7
7
7

SCALARS cont_pheno double
LOOKUP_TABLE default
0.5
0.5
0.5
0.5
0.5
0.5
0.5
0.5
0.5
0.5
0.5

SCALARS name double
LOOKUP_TABLE default
5
9
4
6
8
0
7
2
1
3
10

SCALARS interaction_phenotype double
LOOKUP_TABLE default
0
0
0
0
0
0
0
0
0
0
0

SCALARS vessel_interaction double
LOOKUP_TABLE default
0
0
0
0
0
0
0
0
0
0
0

SCALARS is_follower double
LOOKUP_TABLE default
1
1
1
1
1
1
1
1
1
1
1

SCALARS polarised double
LOOKUP_TABLE default
0
0
0
0
0
0
0
0
0
0
0

