# vtk DataFile Version 2.0
Unstructured grid legacy vtk file with point scalar data
ASCII

DATASET UNSTRUCTURED_GRID
POINTS 5 double
362.764 351.644 402.302
357.923 359.741 399.035
361.018 360.191 407.402
367.554 354.382 407.068
365.804 357.427 398.065

POINT_DATA 5
SCALARS radius double
LOOKUP_TABLE default
4.53728
5.0685
5.02287
4.63728
5.08666

SCALARS status double
LOOKUP_TABLE default
1
1
1
1
1

SCALARS concentration double
LOOKUP_TABLE default
39.9665
38.6751
39.8802
39.9665
41.1145

SCALARS fibres double
LOOKUP_TABLE default
0
0
0
0
0

SCALARS phenot double
LOOKUP_TABLE default
7
7
7
7
7

SCALARS cont_pheno double
LOOKUP_TABLE default
0.5
0.5
0.5
0.5
0.5

SCALARS name double
LOOKUP_TABLE default
4
0
1
3
2

SCALARS interaction_phenotype double
LOOKUP_TABLE default
0
0
0
0
0

SCALARS vessel_interaction double
LOOKUP_TABLE default
0
0
0
0
0

SCALARS is_follower double
LOOKUP_TABLE default
1
1
1
1
1

SCALARS polarised double
LOOKUP_TABLE default
0
0
0
0
0

