# vtk DataFile Version 2.0
Unstructured grid legacy vtk file with point scalar data
ASCII

DATASET UNSTRUCTURED_GRID
POINTS 17 double
351.895 354.877 407.499
350.311 362.677 404.614
355.52 357.105 400.596
353.803 367.179 398.735
355.277 369.155 406.639
361.07 350.861 400.161
358.536 347.285 407.475
363.48 361.218 389.316
356.274 361.416 393.231
363.626 358.57 397.528
360.764 365.275 401.546
362.372 357.978 405.813
356.264 361.837 410.535
368.975 352.901 393.792
369.386 349.417 401.128
369.882 354.045 408.256
369.112 361.984 403.253

POINT_DATA 17
SCALARS radius double
LOOKUP_TABLE default
5.03728
5.03728
5.08666
4.79809
5.03728
5.04636
5.09809
5.03728
5.03728
5.03728
4.89809
5.08666
5.08666
5.0053
5.0053
5.03728
5.03728

SCALARS status double
LOOKUP_TABLE default
1
1
1
1
1
1
1
1
1
1
1
1
1
1
1
1
1

SCALARS concentration double
LOOKUP_TABLE default
36.301
36.301
36.8838
39.8896
39.8896
36.7462
36.7462
41.2827
39.0978
40.5739
39.8896
39.728
39.728
36.7462
36.7462
40.6014
40.5739

SCALARS fibres double
LOOKUP_TABLE default
0
0
0
0
0
0
0
0
0
0
0
0
0
0
0
0
0

SCALARS phenot double
LOOKUP_TABLE default
7
7
7
7
7
7
7
7
7
7
7
7
7
7
7
7
7

SCALARS cont_pheno double
LOOKUP_TABLE default
0.5
0.5
0.5
0.5
0.5
0.5
0.5
0.5
0.5
0.5
0.5
0.5
0.5
0.5
0.5
0.5
0.5

SCALARS name double
LOOKUP_TABLE default
5
11
0
16
14
9
4
6
8
2
7
1
12
15
13
3
10

SCALARS interaction_phenotype double
LOOKUP_TABLE default
0
0
0
0
0
0
0
0
0
0
0
0
0
0
0
0
0

SCALARS vessel_interaction double
LOOKUP_TABLE default
0
0
0
0
0
0
0
0
0
0
0
0
0
0
0
0
0

SCALARS is_follower double
LOOKUP_TABLE default
1
1
1
1
1
1
1
1
1
1
1
1
1
1
1
1
1

SCALARS polarised double
LOOKUP_TABLE default
0
0
0
0
0
0
0
0
0
0
0
0
0
0
0
0
0

