# vtk DataFile Version 2.0
Unstructured grid legacy vtk file with point scalar data
ASCII

DATASET UNSTRUCTURED_GRID
POINTS 30 double
354.099 355.268 393.971
353.535 354.075 403.047
350.788 353.857 412.146
348.905 347.764 406.196
350.138 360.586 407.754
350.52 366.559 402.473
352.532 373.086 396.971
352.341 373.434 406.363
359.964 349.903 394.179
359.312 348.046 387.58
359.646 347.53 401.719
361.162 355.498 399.33
357.325 349.246 409.213
365.292 352.151 407.45
357.316 363.067 390.843
364.366 359.524 393.441
355.603 361.393 399.126
362.904 364.461 400.107
360.338 358.958 406.473
356.18 360.514 413.846
357.227 366.377 407.315
372.642 355.273 392.53
367.804 348.476 393.67
368.191 346.457 402.124
369.081 355.132 400.024
366.997 363.391 386.283
373.248 362.811 399.797
373.907 355.637 407.436
368.363 361.888 406.128
375.373 349.569 398.292

POINT_DATA 30
SCALARS radius double
LOOKUP_TABLE default
5.09809
5.09809
5.09809
5.09809
5.03728
5.09809
5.09809
5.09809
4.87271
4.97271
5.0053
5.06699
5.09809
5.09809
5.03728
5.06699
5.09809
5.09809
5.08666
5.08666
5.09809
5.07271
5.07271
5.07271
5.09809
5.03728
5.09809
5.09809
5.09809
5.07271

SCALARS status double
LOOKUP_TABLE default
1
1
1
1
1
1
1
1
1
1
1
2
1
1
1
2
1
1
1
1
1
1
1
1
1
1
1
1
1
1

SCALARS concentration double
LOOKUP_TABLE default
37.129
37.129
34.9205
34.9205
36.7133
37.129
39.4567
40.7269
36.5693
36.5693
36.5693
40.6326
34.115
40.9011
38.6713
40.6326
37.129
41.9429
39.8125
38.6136
40.7085
39.8607
39.8607
38.4461
40.6326
41.8417
44.385
40.9011
44.385
38.4461

SCALARS fibres double
LOOKUP_TABLE default
0
0
0
0
0
0
0
0
0
0
0
0
0
0
0
0
0
0
0
0
0
0
0
0
0
0
0
0
0
0

SCALARS phenot double
LOOKUP_TABLE default
7
7
7
7
7
7
7
7
7
7
7
7
7
7
7
7
7
7
7
7
7
7
7
7
7
7
7
7
7
7

SCALARS cont_pheno double
LOOKUP_TABLE default
0.5
0.5
0.5
0.5
0.5
0.5
0.5
0.5
0.5
0.5
0.5
0.45
0.5
0.5
0.5
0.45
0.5
0.5
0.5
0.5
0.5
0.5
0.5
0.5
0.5
0.5
0.5
0.5
0.5
0.5

SCALARS name double
LOOKUP_TABLE default
19
0
5
23
11
28
16
14
27
29
9
24
4
21
8
2
18
7
1
12
17
15
26
13
20
6
22
3
10
25

SCALARS interaction_phenotype double
LOOKUP_TABLE default
0
0
0
0
0
0
0
0
0
0
0
0
0
0
0
0
0
0
0
0
0
0
0
0
0
0
0
0
0
0

SCALARS vessel_interaction double
LOOKUP_TABLE default
0
0
0
0
0
0
0
0
0
0
0
0
0
0
0
0
0
0
0
0
0
0
0
0
0
0
0
0
0
0

SCALARS is_follower double
LOOKUP_TABLE default
1
1
1
1
1
1
1
1
1
1
1
1
1
1
1
1
1
1
1
1
1
1
1
1
1
1
1
1
1
1

SCALARS polarised double
LOOKUP_TABLE default
0
0
0
0
0
0
0
0
0
0
0
0
0
0
0
0
0
0
0
0
0
0
0
0
0
0
0
0
0
0

