# vtk DataFile Version 2.0
Unstructured grid legacy vtk file with point scalar data
ASCII

DATASET UNSTRUCTURED_GRID
POINTS 11 double
352.621 358.471 407.265
362.883 352.292 400.649
359.57 347.224 406.438
363.496 359.783 390.176
356.236 362.615 393.583
355.804 356.102 399.586
356.008 364.439 401.969
365.17 359.229 397.434
361.484 359.278 405.394
368.867 354.966 406.297
368.504 361.79 402.762

POINT_DATA 11
SCALARS radius double
LOOKUP_TABLE default
5.08666
5.09809
5.09809
5.03728
5.03728
5.08666
5.08666
4.53728
5.02287
5.03728
4.63728

SCALARS status double
LOOKUP_TABLE default
1
1
1
1
1
1
1
1
1
1
1

SCALARS concentration double
LOOKUP_TABLE default
36.301
36.7462
36.7462
41.2827
39.0978
36.8838
39.8896
40.5739
39.728
40.6014
40.5739

SCALARS fibres double
LOOKUP_TABLE default
0
0
0
0
0
0
0
0
0
0
0

SCALARS phenot double
LOOKUP_TABLE default
7
7
7
7
7
7
7
7
7
7
7

SCALARS cont_pheno double
LOOKUP_TABLE default
0.5
0.5
0.5
0.5
0.5
0.5
0.5
0.5
0.5
0.5
0.5

SCALARS name double
LOOKUP_TABLE default
5
9
4
6
8
0
7
2
1
3
10

SCALARS interaction_phenotype double
LOOKUP_TABLE default
0
0
0
0
0
0
0
0
0
0
0

SCALARS vessel_interaction double
LOOKUP_TABLE default
0
0
0
0
0
0
0
0
0
0
0

SCALARS is_follower double
LOOKUP_TABLE default
1
1
1
1
1
1
1
1
1
1
1

SCALARS polarised double
LOOKUP_TABLE default
0
0
0
0
0
0
0
0
0
0
0

