# vtk DataFile Version 2.0
Unstructured grid legacy vtk file with point scalar data
ASCII

DATASET UNSTRUCTURED_GRID
POINTS 63 double
344.268 347.367 406.804
343.448 365.963 408.454
348.15 344.424 400.023
350.34 341.205 408.032
350.169 353.591 385.787
352.181 355.156 393.987
349.907 352.276 402.112
349.035 353.811 410.795
347.897 360.549 404.52
354.788 358.888 400.975
350.151 361.963 412.925
354.659 364.902 406.234
349.067 369.057 402.094
354.736 373.865 395.199
346.376 374.993 396.023
355.433 366.267 398.165
346.77 368.573 416.107
353.358 379.048 401.35
353.245 376.728 411.035
350.796 381.18 417.026
356.832 340.455 383.932
363.756 344.785 386.635
356.431 345.69 400.493
357.996 351.307 383.26
359.69 350.361 394.798
360.356 349.898 389.365
364.103 349.759 400.855
357.632 352.458 404.052
360.438 347.463 409.246
355.766 352.075 415.674
364.536 350.866 415.858
355.822 359.676 384.673
363.172 358.785 380.755
362.832 356.61 388.419
359.659 364.666 390.327
359.194 357.317 394.349
363.658 358.344 403.649
361.144 362.213 397.868
357.182 357.866 409.966
356.932 360.631 417.793
360.383 373.314 389.152
362.461 367.074 403.202
355.722 368.097 413.729
356.965 372.155 405.102
370.164 345.117 402.738
368.473 347.56 393.826
367.523 351.61 407.842
373.788 355.093 411.743
373.093 355.775 391.999
367.341 363.875 387.487
373.767 364.843 392.702
371.447 355.661 401.778
366.28 355.705 395.513
369.348 363.078 399.507
372.208 362.566 407.859
366.009 358.771 411.982
365.828 368.828 394.421
376.748 343.606 389.841
375.934 349.179 393.093
376.726 349.929 400.258
379.121 358.597 396.668
377.299 364.674 401.859
378.83 356.379 405.095

POINT_DATA 63
SCALARS radius double
LOOKUP_TABLE default
5.04636
5.04636
5.04636
5.04636
5.04636
5.04636
5.04636
5.09809
5.04636
5.03653
5.0053
5.04636
5.09809
5.04636
5.04636
5.09809
5.0053
5.0053
5.0053
5.0053
5.02621
5.08931
5.0053
5.08931
4.32621
4.32621
5.02167
5.03653
5.04636
5.04636
5.04636
5.09809
5.02167
5.02167
5.04636
4.53653
5.08666
4.53653
5.04636
5.08666
5.04636
5.09809
5.04636
5.0053
5.07271
5.07271
5.04636
5.04636
5.07271
5.03728
5.04636
5.04636
5.0053
5.07271
5.04636
5.04636
5.07271
4.58931
4.68931
5.02621
5.0053
5.0053
5.04636

SCALARS status double
LOOKUP_TABLE default
1
1
1
1
1
1
1
1
1
2
1
1
1
1
1
1
1
2
2
2
1
1
1
1
1
1
2
2
1
1
1
1
2
2
1
2
1
2
1
1
1
1
1
2
1
1
1
1
1
1
1
1
1
1
1
1
1
1
1
1
1
1
1

SCALARS concentration double
LOOKUP_TABLE default
31.4797
36.1598
34.8841
31.4797
35.2488
35.2488
34.8841
34.1486
36.1598
37.2095
36.1598
40.7864
37.7052
40.0813
40.0813
38.7217
36.1598
41.0234
41.0234
41.0234
34.5724
34.5724
34.7349
34.5724
35.3646
35.3646
38.4437
37.2095
34.8947
34.8947
38.6127
39.559
41.2083
41.2083
39.559
37.2095
39.3465
37.2095
36.1598
38.4057
39.559
42.7689
40.7864
41.0234
36.8274
37.3151
38.6127
42.5522
42.303
45.1004
46.7943
41.4465
42.438
42.438
44.3902
44.3902
42.438
40.1272
40.1272
40.1272
46.7943
46.7943
42.5522

SCALARS fibres double
LOOKUP_TABLE default
0
0
0
0
0
0
0
0
0
0
0
0
0
0
0
0
0
0
0
0
0
0
0
0
0
0
0
0
0
0
0
0
0
0
0
0
0
0
0
0
0
0
0
0
0
0
0
0
0
0
0
0
0
0
0
0
0
0
0
0
0
0
0

SCALARS phenot double
LOOKUP_TABLE default
7
7
7
7
7
7
7
7
7
7
7
7
7
7
7
7
7
7
7
7
7
7
7
7
7
7
7
7
7
7
7
7
7
7
7
7
7
7
7
7
7
7
7
7
7
7
7
7
7
7
7
7
7
7
7
7
7
7
7
7
7
7
7

SCALARS cont_pheno double
LOOKUP_TABLE default
0.5
0.5
0.5
0.5
0.5
0.5
0.5
0.5
0.5
0.45
0.5
0.5
0.5
0.5
0.5
0.5
0.5
0.45
0.45
0.45
0.5
0.5
0.5
0.5
0.5
0.5
0.45
0.45
0.5
0.5
0.5
0.5
0.45
0.45
0.5
0.45
0.5
0.45
0.5
0.5
0.5
0.5
0.5
0.45
0.5
0.5
0.5
0.5
0.5
0.5
0.5
0.5
0.5
0.5
0.5
0.5
0.5
0.5
0.5
0.5
0.5
0.5
0.5

SCALARS name double
LOOKUP_TABLE default
23
39
45
38
50
19
0
5
33
30
11
17
28
16
41
18
48
56
42
59
34
40
9
29
27
62
24
55
36
4
47
32
52
2
8
44
1
61
37
12
51
7
53
14
13
26
21
3
15
6
49
20
35
31
10
43
46
54
60
25
22
58
57

SCALARS interaction_phenotype double
LOOKUP_TABLE default
0
0
0
0
0
0
0
0
0
0
0
0
0
0
0
0
0
0
0
0
0
0
0
0
0
0
0
0
0
0
0
0
0
0
0
0
0
0
0
0
0
0
0
0
0
0
0
0
0
0
0
0
0
0
0
0
0
0
0
0
0
0
0

SCALARS vessel_interaction double
LOOKUP_TABLE default
0
0
0
0
0
0
0
0
0
0
0
0
0
0
0
0
0
0
0
0
0
0
0
0
0
0
0
0
0
0
0
0
0
0
0
0
0
0
0
0
0
0
0
0
0
0
0
0
0
0
0
0
0
0
0
0
0
0
0
0
0
0
0

SCALARS is_follower double
LOOKUP_TABLE default
1
1
1
1
1
1
1
1
1
1
1
1
1
1
1
1
1
1
1
1
1
1
1
1
1
1
1
1
1
1
1
1
1
1
1
1
1
1
1
1
1
1
1
1
1
1
1
1
1
1
1
1
1
1
1
1
1
1
1
1
1
1
1

SCALARS polarised double
LOOKUP_TABLE default
0
0
0
0
0
0
0
0
0
0
0
0
0
0
0
0
0
0
0
0
0
0
0
0
0
0
0
0
0
0
0
0
0
0
0
0
0
0
0
0
0
0
0
0
0
0
0
0
0
0
0
0
0
0
0
0
0
0
0
0
0
0
0

