# vtk DataFile Version 2.0
Unstructured grid legacy vtk file with point scalar data
ASCII

DATASET UNSTRUCTURED_GRID
POINTS 74 double
344.99 346.796 407.325
342.872 365.626 409.278
346.417 344 399.34
351.5 341.419 405.747
350.238 352.396 385.969
350.025 353.068 394.621
346.321 353.355 402.268
352.265 348.458 401.477
348.952 354.211 410.707
350.377 347.712 417.013
355.27 359.892 384.625
347.836 360.795 404.557
355.545 358.911 400.036
350.216 361.942 413.596
355.386 358.62 407.898
355.221 362.544 421.001
352.522 374.973 391.728
346.895 369.574 403.389
352.14 366.492 397.777
346.31 375.132 397.157
352.78 366.302 407.061
346.699 369.645 415.837
352.612 378.691 401.853
352.672 376.955 410.665
351.218 381.54 417.386
357.071 339.849 384.505
364.976 343.121 386.195
358.655 343.681 401.516
361.034 345.143 410.046
357.541 352.183 381.155
360.223 348.758 389.461
360.081 354.563 386.922
357.86 350.734 396.823
364.754 348.928 400.885
364.618 354.34 395.174
358.137 351.649 405.353
356.689 352.119 413.416
364.344 350.725 416.303
362.494 359.59 380.204
364.066 358.046 387.601
358.917 365.449 390.07
357.213 357.569 392.52
363.65 358.339 404.167
363.149 361.372 395.966
358.887 364.898 404.699
359.037 360.6 414.145
360.34 373.984 389.023
365.386 369.077 385.447
359.734 367.69 397.977
365.275 367.77 404.868
357.029 372.708 404.975
358.939 375.135 397.135
355.693 368.573 414.384
370.349 343.605 403.404
368.454 348.047 392.506
370.989 354.868 401.43
367.643 350.773 408.31
374.257 353.735 413.02
372.18 356.545 392.731
369.596 362.409 387.623
374.363 365.099 393.799
369.281 364.01 399.919
371.53 364.945 407.869
366.248 357.89 412.46
372.018 358.257 408.183
366.198 369.379 394.052
378.154 340.253 383.175
376.373 340.831 391.88
376.982 349.094 392.509
376.682 348.552 400.895
379.363 354.72 405.861
380.579 358.92 394.831
376.221 360.787 401.798
379.083 368.226 400.978

POINT_DATA 74
SCALARS radius double
LOOKUP_TABLE default
5.04636
5.04636
5.04636
5.04636
5.04636
5.04636
5.0053
5.0053
5.09809
5.0053
5.09809
5.04636
5.03653
5.0053
5.0053
5.08666
5.0053
5.09809
5.09809
5.04636
5.04636
5.0053
5.0053
5.0053
5.0053
5.02621
5.08931
5.0053
5.04636
5.08931
5.02621
4.2857
5.02621
5.02167
5.0053
5.03653
5.0053
5.04636
5.02167
4.3857
5.04636
5.03653
5.08666
5.09749
4.74636
5.0053
5.04636
5.09809
5.09749
4.64636
5.0053
5.0053
5.04636
5.07271
5.07271
5.04636
5.04636
5.04636
5.07271
5.09809
5.04636
5.07271
4.6053
5.04636
4.6053
5.07271
5.03939
5.03939
5.08931
5.02621
5.04636
5.0053
5.07271
5.07271

SCALARS status double
LOOKUP_TABLE default
1
1
1
1
1
1
1
1
1
1
1
1
2
1
1
1
1
1
1
1
1
1
2
2
2
1
1
1
1
1
1
2
1
2
1
2
1
1
2
2
1
2
1
2
1
1
1
1
2
1
2
1
1
1
1
1
1
1
1
1
1
1
1
1
1
1
1
1
1
1
1
1
1
1

SCALARS concentration double
LOOKUP_TABLE default
30.1613
34.612
30.3317
30.0282
33.5149
34.7507
33.2113
33.2113
33.5408
35.2294
37.6785
34.9252
37.3822
36.42
38.0216
38.8229
41.6385
37.6338
40.1064
37.6255
39.2392
36.8396
42.4548
42.8661
42.2138
31.3881
34.5708
33.0318
34.9929
35.1426
35.573
39.2498
35.7928
36.908
40.2114
36.1879
35.2294
37.8461
41.043
39.2498
41.1366
38.1399
40.4972
41.4616
43.5792
38.0216
44.956
44.951
41.4616
43.5792
42.7465
41.6385
41.2531
36.6613
37.177
42.104
38.8315
42.8154
42.7612
44.951
48.6173
45.4736
46.6001
41.8886
46.6001
46.4154
37.2127
37.2127
40.438
40.6115
45.6361
47.43
46.9141
50.7864

SCALARS fibres double
LOOKUP_TABLE default
0
0
0
0
0
0
0
0
0
0
0
0
0
0
0
0
0
0
0
0
0
0
0
0
0
0
0
0
0
0
0
0
0
0
0
0
0
0
0
0
0
0
0
0
0
0
0
0
0
0
0
0
0
0
0
0
0
0
0
0
0
0
0
0
0
0
0
0
0
0
0
0
0
0

SCALARS phenot double
LOOKUP_TABLE default
7
7
7
7
7
7
7
7
7
7
7
7
7
7
7
7
7
7
7
7
7
7
7
7
7
7
7
7
7
7
7
7
7
7
7
7
7
7
7
7
7
7
7
7
7
7
7
7
7
7
7
7
7
7
7
7
7
7
7
7
7
7
7
7
7
7
7
7
7
7
7
7
7
7

SCALARS cont_pheno double
LOOKUP_TABLE default
0.5
0.5
0.5
0.5
0.5
0.5
0.5
0.5
0.5
0.5
0.5
0.5
0.45
0.5
0.5
0.5
0.5
0.5
0.5
0.5
0.5
0.5
0.45
0.45
0.45
0.5
0.5
0.5
0.5
0.5
0.5
0.45
0.5
0.45
0.5
0.45
0.5
0.5
0.45
0.45
0.5
0.45
0.5
0.45
0.5
0.5
0.5
0.5
0.45
0.5
0.45
0.5
0.5
0.5
0.5
0.5
0.5
0.5
0.5
0.5
0.5
0.5
0.5
0.5
0.5
0.5
0.5
0.5
0.5
0.5
0.5
0.5
0.5
0.5

SCALARS name double
LOOKUP_TABLE default
23
39
45
38
50
19
0
66
5
65
32
33
30
11
37
12
16
28
18
41
17
48
56
42
59
34
40
9
36
29
62
73
27
24
35
55
4
47
52
2
8
44
1
61
71
67
51
70
69
7
14
68
53
13
26
20
21
3
15
6
49
31
10
43
72
46
64
54
60
25
57
22
63
58

SCALARS interaction_phenotype double
LOOKUP_TABLE default
0
0
0
0
0
0
0
0
0
0
0
0
0
0
0
0
0
0
0
0
0
0
0
0
0
0
0
0
0
0
0
0
0
0
0
0
0
0
0
0
0
0
0
0
0
0
0
0
0
0
0
0
0
0
0
0
0
0
0
0
0
0
0
0
0
0
0
0
0
0
0
0
0
0

SCALARS vessel_interaction double
LOOKUP_TABLE default
0
0
0
0
0
0
0
0
0
0
0
0
0
0
0
0
0
0
0
0
0
0
0
0
0
0
0
0
0
0
0
0
0
0
0
0
0
0
0
0
0
0
0
0
0
0
0
0
0
0
0
0
0
0
0
0
0
0
0
0
0
0
0
0
0
0
0
0
0
0
0
0
0
0

SCALARS is_follower double
LOOKUP_TABLE default
1
1
1
1
1
1
1
1
1
1
1
1
1
1
1
1
1
1
1
1
1
1
1
1
1
1
1
1
1
1
1
1
1
1
1
1
1
1
1
1
1
1
1
1
1
1
1
1
1
1
1
1
1
1
1
1
1
1
1
1
1
1
1
1
1
1
1
1
1
1
1
1
1
1

SCALARS polarised double
LOOKUP_TABLE default
0
0
0
0
0
0
0
0
0
0
0
0
0
0
0
0
0
0
0
0
0
0
0
0
0
0
0
0
0
0
0
0
0
0
0
0
0
0
0
0
0
0
0
0
0
0
0
0
0
0
0
0
0
0
0
0
0
0
0
0
0
0
0
0
0
0
0
0
0
0
0
0
0
0

