# vtk DataFile Version 2.0
Unstructured grid legacy vtk file with point scalar data
ASCII

DATASET UNSTRUCTURED_GRID
POINTS 8 double
352.369 358.743 406.389
361.061 351.205 402.354
361.321 360.518 392.07
355.922 365.217 401.903
357.338 357.329 398.825
361.353 359.363 406.144
367.679 353.96 406.494
366.05 357.258 398.947

POINT_DATA 8
SCALARS radius double
LOOKUP_TABLE default
5.08666
5.03728
5.08666
5.08666
5.08666
5.02287
5.03728
5.08666

SCALARS status double
LOOKUP_TABLE default
1
1
1
1
1
1
1
1

SCALARS concentration double
LOOKUP_TABLE default
38.6805
36.6931
38.6805
38.6805
38.6805
39.8573
40.0793
41.0269

SCALARS fibres double
LOOKUP_TABLE default
0
0
0
0
0
0
0
0

SCALARS phenot double
LOOKUP_TABLE default
7
7
7
7
7
7
7
7

SCALARS cont_pheno double
LOOKUP_TABLE default
0.5
0.5
0.5
0.5
0.5
0.5
0.5
0.5

SCALARS name double
LOOKUP_TABLE default
5
4
6
7
0
1
3
2

SCALARS interaction_phenotype double
LOOKUP_TABLE default
0
0
0
0
0
0
0
0

SCALARS vessel_interaction double
LOOKUP_TABLE default
0
0
0
0
0
0
0
0

SCALARS is_follower double
LOOKUP_TABLE default
1
1
1
1
1
1
1
1

SCALARS polarised double
LOOKUP_TABLE default
0
0
0
0
0
0
0
0

