# vtk DataFile Version 2.0
Unstructured grid legacy vtk file with point scalar data
ASCII

DATASET UNSTRUCTURED_GRID
POINTS 152 double
339.193 341.783 402.655
343.103 349.739 381.942
342.22 354.079 393.169
343.321 352.261 402.127
340.01 347.911 408.635
345.088 354.533 411.142
341.294 363.968 398.135
337.541 361.129 408.225
345.038 361.434 405.75
338.846 361.006 414.581
344.577 365.38 420.475
337.338 366.296 403.585
345.569 368.903 401.751
343.426 366.717 412.046
340.433 374.498 411.161
343.236 375.62 390.092
343.746 377.888 401.799
351.829 336.372 383.844
351.446 340.757 389.486
345.875 341.595 396.227
346.818 343.747 404.41
351.218 336.76 401.044
354.908 340.454 395.792
352.143 338.438 409.059
347.161 345.445 413.024
354.175 350.932 378.428
348.345 348.559 392.191
348.778 354.629 386.098
352.822 345.995 399.812
350.85 353.896 404.568
353.524 346.762 408.054
353.299 354.687 411.863
349.165 347.914 421.019
354.233 361.379 383.935
354.707 364.502 376.355
348.641 362.364 390.99
349.409 356.303 396.423
353.026 364.26 398.412
349.93 362.301 414.574
353.209 361.789 406.503
352.661 364.261 422.141
349.836 368.724 385.124
349.738 371.271 394.126
348.998 374.71 402.059
355.392 373.121 400.876
351.644 368.972 408.463
348.302 374.85 408.546
355.014 369.648 416.166
347.212 372.701 416.415
349.252 371.848 424.695
350.035 379.586 390.882
346.515 378.102 396.892
351.822 381.08 404.261
352.955 384.291 396.79
354.249 378.048 413.269
346.034 380.275 412.822
350.251 382.55 419.417
359.195 341.05 385.152
361.538 343.439 393.355
358.419 341.118 403.346
359.92 343.941 412.184
358.314 352.984 371.6
355.686 347.184 389.182
358.017 354.082 385.402
364.347 347.921 386.963
360.96 351.814 392.883
361.992 347.532 400.768
356.305 352.886 398.945
359.65 350.943 407.424
356.611 349.146 417.584
364.466 350.294 415.41
362.792 349.247 423.435
359.779 357.375 378.423
361.448 365.219 383.533
356.446 358.754 392.127
362.345 363.677 396.268
358.772 359.143 400.058
365.064 361.207 404.588
358.802 359.761 413.675
364.355 356.042 410.71
358.386 357.904 406.723
360.692 364.01 419.615
357.041 369.77 382.497
355.825 366.112 389.936
362.96 369.425 389.822
363.993 374.03 399.952
358.204 369.545 395.723
359.518 366.668 404.553
360.395 366.502 412.14
358.353 374.23 407.389
359.176 375.461 382.176
359.019 380.847 380.397
357.1 376.742 393.029
363.037 380.87 386.855
359 380.528 400.546
366.547 339.14 373.387
365.579 343.904 380.197
368.883 340.772 394.411
366.513 338.549 386.838
369.381 345.297 401.508
372.951 338.111 403.462
365.941 341.509 407.54
372.948 340.737 411.887
368.175 351.546 379.938
373.723 346.611 382.749
371.962 349.633 389.442
367.821 349.776 395.657
374.032 352.698 400.964
374.991 346.17 395.985
368.567 350.479 407.509
372.719 351.215 414.579
367.714 357.728 375.088
370.789 358.996 382.933
373.724 363.693 376.098
370.607 364.713 385.19
374.361 356.995 379.938
366.272 356.526 388.591
369.603 363.921 392.498
373.87 356.41 393.29
366.598 357.23 397.178
372.369 360.505 401.549
371.209 358.321 408.7
366.136 359.2 424.046
367.947 358.799 416.575
366.584 367.233 378.685
369.427 372.294 385.719
371.917 371.797 393.909
368.172 367.481 400.321
366.339 371.539 407.721
371.848 366.091 412.459
366.005 376.528 392.552
378.543 336.586 382.999
376.035 341.796 389.102
380.052 339.758 396.635
377.899 345.17 402.964
379.898 350.031 390.424
381.655 351.283 398.671
378.828 347.254 410.77
380.728 354.793 407.854
381.115 354.603 418.089
377.863 346.743 419.109
377.539 363.236 389.647
382.759 357.387 392.942
380.275 359.462 400.699
376.197 358.55 413.804
377.339 365.409 406.157
376.137 368.146 383.255
375.87 365.867 397.593
383.405 367.379 400.805
378.786 374.206 397.541
377.729 373.367 408.548
387.406 356.082 403.396

POINT_DATA 152
SCALARS radius double
LOOKUP_TABLE default
5.07271
5.0053
5.04636
5.0053
5.0053
5.09809
4.52621
4.32621
5.0053
4.42621
5.02621
4.62621
5.09809
5.0053
5.08931
5.0053
4.07271
5.08931
4.89976
5.0053
5.07271
5.0053
4.89976
5.0053
5.07271
5.03939
5.03939
5.0053
5.0053
5.0053
5.07271
5.02621
5.0053
5.04636
5.04636
5.03653
5.03653
5.09809
5.0053
5.02621
5.08666
5.07271
5.07271
4.53939
5.04588
5.04636
4.63939
5.04636
5.08931
5.02621
4.92621
4.17271
5.07271
5.02621
5.0053
5.08931
5.0053
5.08931
5.03939
5.0053
5.0053
5.03939
5.03939
5.0857
5.08931
5.09976
5.03939
5.09976
5.03653
5.0053
5.0053
5.0053
5.02167
4.47271
5.00492
5.00492
4.82621
5.03728
4.72621
5.03728
4.82621
5.02621
4.37271
5.07271
5.00492
5.08931
5.04588
5.04636
4.72621
5.0053
4.07271
4.17271
5.07271
5.0053
5.0053
5.09976
5.09976
5.02621
5.03939
5.02167
5.02621
5.0053
5.02621
5.08931
5.03939
5.03939
5.07271
5.04636
5.03939
5.04636
5.0053
5.07271
4.12621
5.0053
4.57271
4.12621
5.0857
5.00492
5.07271
5.07271
5.08931
5.07271
5.02621
5.04636
5.04636
5.04636
5.02621
5.02621
5.04636
5.0053
5.08931
5.03939
5.09976
5.09976
5.03939
5.08931
5.07271
5.08931
5.07271
5.07271
5.0053
5.0053
5.0053
5.07271
5.07271
5.08931
4.67271
5.04636
5.08931
5.08931
5.02621
5.07271

SCALARS status double
LOOKUP_TABLE default
1
1
1
1
1
1
2
2
1
2
2
2
1
2
1
1
1
1
1
1
1
1
1
1
1
1
1
1
1
1
1
1
1
1
1
2
2
1
1
1
1
1
1
1
2
1
1
1
1
1
2
1
2
2
2
1
2
1
1
1
1
1
1
2
1
1
1
1
2
1
1
1
2
1
2
2
1
1
1
1
1
1
1
1
2
1
2
1
1
2
1
1
1
1
1
1
1
1
1
2
1
1
1
1
1
1
1
1
1
1
1
1
1
1
2
1
2
2
1
1
1
1
1
1
1
1
1
1
1
1
1
1
1
1
1
1
1
1
1
1
1
2
1
1
1
1
2
1
1
1
1
1

SCALARS concentration double
LOOKUP_TABLE default
28.3532
30.7587
32.5606
32.0765
29.6742
33.2249
32.7328
32.7328
35.008
32.7328
35.6326
32.7328
36.6748
34.6758
37.7986
35.8258
38.115
31.1079
32.001
28.5905
30.5981
29.8174
32.001
29.8174
30.9601
34.3209
33.9265
33.7848
33.0077
35.008
32.4577
36.8888
32.0345
37.4387
38.7421
36.6942
35.358
38.3945
36.5066
36.8888
38.9797
40.1217
38.0659
37.7986
43.3088
38.7876
37.7986
41.974
38.4875
39.401
42.9217
38.115
42.6008
42.9217
43.9501
38.4875
41.7015
31.1079
32.001
32.9456
34.2852
34.3209
33.9265
36.1024
35.5252
35.359
35.359
35.359
36.2489
34.7605
37.2243
37.2243
39.7063
42.3246
40.8037
40.8037
39.0298
41.8676
40.0661
41.8676
39.0298
40.0661
42.3246
40.1217
44.7615
49.5791
43.3088
42.0318
40.0661
44.1799
45.499
45.499
42.7738
47.6384
46.6075
34.2496
34.2496
35.8608
32.6227
36.5718
35.7807
34.2852
35.7807
39.1108
39.1108
39.1108
38.5365
42.8105
38.3316
38.4343
40.1147
43.4315
43.4315
49.8386
49.1747
43.4315
39.9684
45.2533
43.1428
41.7445
47.4371
43.7783
40.0661
41.3352
46.7599
50.288
49.5791
45.1709
48.7996
49.1236
49.5791
34.9038
36.2744
36.0888
38.3316
40.8087
43.6934
39.4357
44.7028
44.7028
40.1147
47.7895
47.3992
49.0446
43.7783
47.4371
49.1747
49.9074
53.5971
53.5971
54.0964
48.3756

SCALARS fibres double
LOOKUP_TABLE default
0
0
0
0
0
0
0
0
0
0
0
0
0
0
0
0
0
0
0
0
0
0
0
0
0
0
0
0
0
0
0
0
0
0
0
0
0
0
0
0
0
0
0
0
0
0
0
0
0
0
0
0
0
0
0
0
0
0
0
0
0
0
0
0
0
0
0
0
0
0
0
0
0
0
0
0
0
0
0
0
0
0
0
0
0
0
0
0
0
0
0
0
0
0
0
0
0
0
0
0
0
0
0
0
0
0
0
0
0
0
0
0
0
0
0
0
0
0
0
0
0
0
0
0
0
0
0
0
0
0
0
0
0
0
0
0
0
0
0
0
0
0
0
0
0
0
0
0
0
0
0
0

SCALARS phenot double
LOOKUP_TABLE default
7
7
7
7
7
7
7
7
7
7
7
7
7
7
7
7
7
7
7
7
7
7
7
7
7
7
7
7
7
7
7
7
7
7
7
7
7
7
7
7
7
7
7
7
7
7
7
7
7
7
7
7
7
7
7
7
7
7
7
7
7
7
7
7
7
7
7
7
7
7
7
7
7
7
7
7
7
7
7
7
7
7
7
7
7
7
7
7
7
7
7
7
7
7
7
7
7
7
7
7
7
7
7
7
7
7
7
7
7
7
7
7
7
7
7
7
7
7
7
7
7
7
7
7
7
7
7
7
7
7
7
7
7
7
7
7
7
7
7
7
7
7
7
7
7
7
7
7
7
7
7
7

SCALARS cont_pheno double
LOOKUP_TABLE default
0.5
0.5
0.5
0.5
0.5
0.5
0.45
0.45
0.5
0.45
0.45
0.45
0.5
0.45
0.5
0.5
0.5
0.5
0.5
0.5
0.5
0.5
0.5
0.5
0.5
0.5
0.5
0.5
0.5
0.5
0.5
0.5
0.5
0.5
0.5
0.45
0.45
0.5
0.5
0.5
0.5
0.5
0.5
0.5
0.45
0.5
0.5
0.5
0.5
0.5
0.45
0.5
0.45
0.45
0.45
0.5
0.45
0.5
0.5
0.5
0.5
0.5
0.5
0.45
0.5
0.5
0.5
0.5
0.45
0.5
0.5
0.5
0.45
0.5
0.45
0.45
0.5
0.5
0.5
0.5
0.5
0.5
0.5
0.5
0.45
0.5
0.45
0.5
0.5
0.45
0.5
0.5
0.5
0.5
0.5
0.5
0.5
0.5
0.5
0.45
0.5
0.5
0.5
0.5
0.5
0.5
0.5
0.5
0.5
0.5
0.5
0.5
0.5
0.5
0.45
0.5
0.45
0.45
0.5
0.5
0.5
0.5
0.5
0.5
0.5
0.5
0.5
0.5
0.5
0.5
0.5
0.5
0.5
0.5
0.5
0.5
0.5
0.5
0.5
0.5
0.5
0.45
0.5
0.5
0.5
0.5
0.45
0.5
0.5
0.5
0.5
0.5

SCALARS name double
LOOKUP_TABLE default
81
90
19
0
23
5
145
108
33
148
48
97
28
39
115
74
149
118
80
45
103
117
141
38
78
29
79
50
66
112
105
109
65
32
104
44
30
18
11
37
12
116
16
146
69
17
82
53
100
95
140
41
56
85
42
128
59
34
126
9
36
136
130
73
62
27
107
124
55
4
47
119
52
147
114
61
96
1
67
135
142
110
87
8
92
111
137
71
143
14
94
150
99
51
68
122
40
26
102
24
134
131
13
120
138
86
35
20
25
21
3
125
77
89
144
151
2
76
15
93
121
72
132
43
70
83
46
31
7
10
133
64
54
88
129
60
98
75
57
123
127
106
22
63
139
84
6
49
58
113
101
91

SCALARS interaction_phenotype double
LOOKUP_TABLE default
0
0
0
0
0
0
0
0
0
0
0
0
0
0
0
0
0
0
0
0
0
0
0
0
0
0
0
0
0
0
0
0
0
0
0
0
0
0
0
0
0
0
0
0
0
0
0
0
0
0
0
0
0
0
0
0
0
0
0
0
0
0
0
0
0
0
0
0
0
0
0
0
0
0
0
0
0
0
0
0
0
0
0
0
0
0
0
0
0
0
0
0
0
0
0
0
0
0
0
0
0
0
0
0
0
0
0
0
0
0
0
0
0
0
0
0
0
0
0
0
0
0
0
0
0
0
0
0
0
0
0
0
0
0
0
0
0
0
0
0
0
0
0
0
0
0
0
0
0
0
0
0

SCALARS vessel_interaction double
LOOKUP_TABLE default
0
0
0
0
0
0
0
0
0
0
0
0
0
0
0
0
0
0
0
0
0
0
0
0
0
0
0
0
0
0
0
0
0
0
0
0
0
0
0
0
0
0
0
0
0
0
0
0
0
0
0
0
0
0
0
0
0
0
0
0
0
0
0
0
0
0
0
0
0
0
0
0
0
0
0
0
0
0
0
0
0
0
0
0
0
0
0
0
0
0
0
0
0
0
0
0
0
0
0
0
0
0
0
0
0
0
0
0
0
0
0
0
0
0
0
0
0
0
0
0
0
0
0
0
0
0
0
0
0
0
0
0
0
0
0
0
0
0
0
0
0
0
0
0
0
0
0
0
0
0
0
0

SCALARS is_follower double
LOOKUP_TABLE default
1
1
1
1
1
1
1
1
1
1
1
1
1
1
1
1
1
1
1
1
1
1
1
1
1
1
1
1
1
1
1
1
1
1
1
1
1
1
1
1
1
1
1
1
1
1
1
1
1
1
1
1
1
1
1
1
1
1
1
1
1
1
1
1
1
1
1
1
1
1
1
1
1
1
1
1
1
1
1
1
1
1
1
1
1
1
1
1
1
1
1
1
1
1
1
1
1
1
1
1
1
1
1
1
1
1
1
1
1
1
1
1
1
1
1
1
1
1
1
1
1
1
1
1
1
1
1
1
1
1
1
1
1
1
1
1
1
1
1
1
1
1
1
1
1
1
1
1
1
1
1
1

SCALARS polarised double
LOOKUP_TABLE default
0
0
0
0
0
0
0
0
0
0
0
0
0
0
0
0
0
0
0
0
0
0
0
0
0
0
0
0
0
0
0
0
0
0
0
0
0
0
0
0
0
0
0
0
0
0
0
0
0
0
0
0
0
0
0
0
0
0
0
0
0
0
0
0
0
0
0
0
0
0
0
0
0
0
0
0
0
0
0
0
0
0
0
0
0
0
0
0
0
0
0
0
0
0
0
0
0
0
0
0
0
0
0
0
0
0
0
0
0
0
0
0
0
0
0
0
0
0
0
0
0
0
0
0
0
0
0
0
0
0
0
0
0
0
0
0
0
0
0
0
0
0
0
0
0
0
0
0
0
0
0
0

