# vtk DataFile Version 2.0
Unstructured grid legacy vtk file with point scalar data
ASCII

DATASET UNSTRUCTURED_GRID
POINTS 6 double
344.188 353.287 397.867
340.368 358.404 392.444
346.81 347.356 403.061
351.606 352.798 404.773
352.195 356.139 397.07
353.05 358.19 405.845

POINT_DATA 6
SCALARS radius double
LOOKUP_TABLE default
5.00303
5.00303
5.0685
4.17091
5.00303
4.17091

SCALARS status double
LOOKUP_TABLE default
1
1
1
1
1
1

SCALARS concentration double
LOOKUP_TABLE default
100
100
100
100
100
100

SCALARS fibres double
LOOKUP_TABLE default
0
0
0
0
0
0

SCALARS phenot double
LOOKUP_TABLE default
7
7
7
7
7
7

SCALARS cont_pheno double
LOOKUP_TABLE default
0.5
0.5
0.5
0.5
0.5
0.5

SCALARS name double
LOOKUP_TABLE default
2
3
1
0
4
5

SCALARS interaction_phenotype double
LOOKUP_TABLE default
0
0
0
0
0
0

SCALARS vessel_interaction double
LOOKUP_TABLE default
0
0
0
0
0
0

SCALARS is_follower double
LOOKUP_TABLE default
1
1
1
1
1
1

SCALARS polarised double
LOOKUP_TABLE default
0
0
0
0
0
0

