# vtk DataFile Version 2.0
Unstructured grid legacy vtk file with point scalar data
ASCII

DATASET UNSTRUCTURED_GRID
POINTS 111 double
335.547 355.264 385.057
332.452 355.322 393.023
332.675 352.638 401.244
335.31 354.74 418.201
332.064 356.823 378.032
330.624 365.386 381.134
333.65 363.189 388.818
331.89 360.98 401.206
335.592 362.349 410.085
329.923 360.377 420.595
328.758 366.64 406.434
331.505 372.373 413.844
335.502 367.405 406.021
345.665 337.663 394.239
335.887 340.185 395.786
341.595 338.264 401.575
338.258 341.393 409.246
343.587 353.332 383.713
340.131 350.744 391.167
340.754 353.019 398.758
337.82 345.876 402.03
345.039 345.781 413.028
338.116 351.893 408.694
345.233 348.778 405.11
336.199 347.657 421.499
342.603 353.21 415.504
343.614 353.059 422.871
337.478 363.512 369.199
336.554 363.359 376.511
340.67 356.621 376.723
344.32 364.646 377.754
340.811 360.382 383.774
342.56 364.345 390.282
345.385 356.781 392.296
340.104 359.176 403.58
337.846 360.448 395.511
345.148 363.15 398.133
345.655 355.882 409.501
343.687 362.372 412.905
343.361 364.795 406.369
339.609 360.716 418.422
338.759 367.53 383.181
339.995 374.019 394.705
338.876 367.949 400.251
344.778 371.416 407.304
336.991 372.063 408.287
342.477 371.08 414.587
337.949 367.552 415.599
351.227 334.475 399.034
349.991 344.822 386.88
352.391 342.472 394.939
349.086 341.604 402.497
346.185 337.895 409.02
353.467 342.29 410.31
349.414 339.222 416.937
351.783 354.044 379.028
353.52 352.76 392.783
350.097 353.437 386.944
347.503 348.896 397.039
354.605 347.037 403.176
354.907 353.938 400.768
352.084 361.694 377.152
348.919 361.268 385.142
347.269 356.18 402.031
353.156 365.112 400.909
351.625 359.543 396.124
352.991 359.508 407.333
354.498 365.011 412.641
346.444 362.658 423.137
350.669 359.048 416.189
350.208 366.751 392.253
347.525 371.055 399.359
353.771 372.022 406.065
353.965 365.53 420.925
348.253 367.87 415.502
361.023 341.01 395.626
357.376 339.113 402.971
362.995 345.416 403.879
361.857 340.316 410.462
357.082 350.647 384.439
362.149 352.992 390.285
358.238 348.09 395.609
359.797 352.871 406.607
356.318 351.743 415.961
363.652 354.955 417.559
356.482 359.465 389.346
365.213 360.583 388.068
359.719 360.001 398.038
360.556 363.985 408.27
358.885 358.62 413.081
361.12 364.935 417.103
357.195 358.887 424.493
364.3 360.064 422.133
363.821 366.138 394.206
360.209 368.118 401.567
357.167 371.175 413.159
363.013 373.133 418.526
362.27 370.373 426.268
369.369 353.487 386.9
365.522 349.273 397.121
372.543 347.391 395.849
370.735 349.841 403.949
367.909 353.3 401.604
366.273 353.938 410.812
373.307 355.062 413.998
367.464 353.681 424.564
371.411 365.143 391.321
367.097 356.954 395.59
366.235 359.016 404.063
369.71 362.527 417.579
365.899 369.179 412.057

POINT_DATA 111
SCALARS radius double
LOOKUP_TABLE default
5.08817
5.08817
5.02478
5.02227
5.08817
5.03849
5.03849
5.09905
5.0059
5.06775
5.09905
5.04712
4.07319
5.0059
5.03728
5.06699
5.09809
5.0059
5.07091
5.02478
5.08666
5.03728
5.03849
5.08817
5.02227
4.84712
4.94712
4.69905
4.59905
5.03849
5.08817
5.07319
5.04712
5.0059
5.02659
5.04712
5.07319
5.09905
5.02659
4.78961
5.02659
5.07319
5.09905
5.09905
4.88961
4.17319
4.2059
4.3059
5.0059
5.03849
5.03849
5.09809
5.06699
5.09809
5.08666
5.03849
5.04712
5.09905
5.0059
5.08817
5.02659
5.03849
5.08817
5.08961
5.0059
5.08961
5.03849
4.52659
5.07319
5.03849
5.0059
5.04712
5.04712
5.0059
5.07319
5.04712
5.09905
5.09905
5.09905
5.09905
5.0059
5.04712
5.07091
5.04712
4.68961
5.03849
5.04712
5.09905
5.0059
5.0059
5.0059
5.04712
4.68961
5.09905
5.0059
4.62659
5.02659
5.02659
5.0059
5.02659
5.07319
3.97319
4.07319
5.0059
5.02659
5.02659
5.04712
5.02659
5.09905
5.02659
5.0059

SCALARS status double
LOOKUP_TABLE default
1
1
1
1
1
1
1
1
1
1
1
1
1
1
1
1
1
1
1
1
1
1
1
1
1
1
1
1
1
1
1
1
1
1
1
1
1
1
1
1
1
1
1
1
1
1
1
1
1
1
1
1
1
1
1
1
1
1
1
1
2
1
1
2
1
2
1
1
1
1
1
1
1
1
1
1
1
1
1
1
1
1
1
1
1
1
1
1
1
1
1
1
1
1
1
1
1
1
1
1
1
1
1
1
1
1
1
1
1
1
1

SCALARS concentration double
LOOKUP_TABLE default
100
100
100
100
100
100
100
100
100
100
100
100
100
100
100
100
100
100
100
100
100
100
100
100
100
100
100
100
100
100
100
100
100
100
100
100
100
100
100
100
100
100
100
100
100
100
100
100
100
100
100
100
100
100
100
100
100
100
100
100
100
100
100
100
100
100
100
100
100
100
100
100
100
100
100
100
100
100
100
100
100
100
100
100
100
100
100
100
100
100
100
100
100
100
100
100
100
100
100
100
100
100
100
100
100
100
100
100
100
100
100

SCALARS fibres double
LOOKUP_TABLE default
0
0
0
0
0
0
0
0
0
0
0
0
0
0
0
0
0
0
0
0
0
0
0
0
0
0
0
0
0
0
0
0
0
0
0
0
0
0
0
0
0
0
0
0
0
0
0
0
0
0
0
0
0
0
0
0
0
0
0
0
0
0
0
0
0
0
0
0
0
0
0
0
0
0
0
0
0
0
0
0
0
0
0
0
0
0
0
0
0
0
0
0
0
0
0
0
0
0
0
0
0
0
0
0
0
0
0
0
0
0
0

SCALARS phenot double
LOOKUP_TABLE default
7
7
7
7
7
7
7
7
7
7
7
7
7
7
7
7
7
7
7
7
7
7
7
7
7
7
7
7
7
7
7
7
7
7
7
7
7
7
7
7
7
7
7
7
7
7
7
7
7
7
7
7
7
7
7
7
7
7
7
7
7
7
7
7
7
7
7
7
7
7
7
7
7
7
7
7
7
7
7
7
7
7
7
7
7
7
7
7
7
7
7
7
7
7
7
7
7
7
7
7
7
7
7
7
7
7
7
7
7
7
7

SCALARS cont_pheno double
LOOKUP_TABLE default
0.5
0.5
0.5
0.5
0.5
0.5
0.5
0.5
0.5
0.5
0.5
0.5
0.5
0.5
0.5
0.5
0.5
0.5
0.5
0.5
0.5
0.5
0.5
0.5
0.5
0.5
0.5
0.5
0.5
0.5
0.5
0.5
0.5
0.5
0.5
0.5
0.5
0.5
0.5
0.5
0.5
0.5
0.5
0.5
0.5
0.5
0.5
0.5
0.5
0.5
0.5
0.5
0.5
0.5
0.55
0.55
0.5
0.5
0.5
0.5
0.45
0.55
0.55
0.45
0.5
0.45
0.5
0.5
0.5
0.5
0.5
0.5
0.5
0.5
0.5
0.5
0.5
0.5
0.5
0.5
0.5
0.5
0.5
0.5
0.5
0.5
0.5
0.5
0.5
0.5
0.5
0.5
0.5
0.5
0.5
0.5
0.5
0.5
0.5
0.5
0.5
0.5
0.5
0.5
0.5
0.5
0.5
0.5
0.5
0.5
0.5

SCALARS name double
LOOKUP_TABLE default
3
50
85
71
54
8
87
11
91
76
88
26
109
101
1
78
62
23
39
2
55
27
45
30
98
61
103
105
68
31
53
72
13
24
86
92
47
9
99
104
44
102
67
19
74
41
108
29
60
56
83
82
81
51
43
36
15
95
59
6
17
100
4
90
70
94
28
107
66
5
22
14
38
64
49
18
77
57
20
37
65
96
0
79
93
35
7
58
10
97
32
33
106
73
21
34
75
84
42
25
63
52
110
12
46
40
80
89
16
69
48

SCALARS interaction_phenotype double
LOOKUP_TABLE default
0
0
0
0
0
0
0
0
0
0
0
0
0
0
0
0
0
0
0
0
0
0
0
0
0
0
0
0
0
0
0
0
0
0
0
0
0
0
0
0
0
0
0
0
0
0
0
0
0
0
0
0
0
0
0
0
0
0
0
0
0
0
0
0
0
0
0
0
0
0
0
0
0
0
0
0
0
0
0
0
0
0
0
0
0
0
0
0
0
0
0
0
0
0
0
0
0
0
0
0
0
0
0
0
0
0
0
0
0
0
0

SCALARS vessel_interaction double
LOOKUP_TABLE default
0
0
0
0
0
0
0
0
0
0
0
0
0
0
0
0
0
0
0
0
0
0
0
0
0
0
0
0
0
0
0
0
0
0
0
0
0
0
0
0
0
0
0
0
0
0
0
0
0
0
0
0
0
0
0
0
0
0
0
0
0
0
0
0
0
0
0
0
0
0
0
0
0
0
0
0
0
0
0
0
0
0
0
0
0
0
0
0
0
0
0
0
0
0
0
0
0
0
0
0
0
0
0
0
0
0
0
0
0
0
0

SCALARS is_follower double
LOOKUP_TABLE default
1
1
1
1
1
1
1
1
1
1
1
1
1
1
1
1
1
1
1
1
1
1
1
1
1
1
1
1
1
1
1
1
1
1
1
1
1
1
1
1
1
1
1
1
1
1
1
1
1
1
1
1
1
1
1
1
1
1
1
1
1
1
1
1
1
1
1
1
1
1
1
1
1
1
1
1
1
1
1
1
1
1
1
1
1
1
1
1
1
1
1
1
1
1
1
1
1
1
1
1
1
1
1
1
1
1
1
1
1
1
1

SCALARS polarised double
LOOKUP_TABLE default
0
0
0
0
0
0
0
0
0
0
0
0
0
0
0
0
0
0
0
0
0
0
0
0
0
0
0
0
0
0
0
0
0
0
0
0
0
0
0
0
0
0
0
0
0
0
0
0
0
0
0
0
0
0
0
0
0
0
0
0
0
0
0
0
0
0
0
0
0
0
0
0
0
0
0
0
0
0
0
0
0
0
0
0
0
0
0
0
0
0
0
0
0
0
0
0
0
0
0
0
0
0
0
0
0
0
0
0
0
0
0

