# vtk DataFile Version 2.0
Unstructured grid legacy vtk file with point scalar data
ASCII

DATASET UNSTRUCTURED_GRID
POINTS 70 double
334.212 355.341 393.582
334.926 353.936 385.51
331.335 357.785 378.866
333.54 362.857 400.957
331.13 371.085 413.794
338.912 339.364 399.576
339.884 341.389 405.757
342.858 344.972 411.013
340.848 350.333 390.616
341.07 354.704 398.504
337.33 348.211 402.739
338.541 352.457 408.589
339.033 354.2 415.591
336.422 362.943 383.859
339.464 357.988 376.391
344.144 364.424 380.61
337.831 362.967 376.736
343.053 358.012 385.832
341.063 361.343 393.479
345.201 361.594 400.886
345.272 357.882 408.832
342.057 360.409 414.94
344.788 361.753 420.093
340.263 367.082 400.161
340.541 371.554 396.072
344.296 366.281 410.225
336.417 367.961 407.318
338.958 368.258 415.853
354.527 338.784 400.398
350.945 343.056 407.696
348.847 340.563 415.195
347.336 355.358 392.146
352.946 353.681 386.346
350.948 346.061 391.798
355.034 352.07 394.06
352.804 346.8 400.38
346.821 350.206 397.444
346.08 350.297 405.45
353.215 357.252 378.504
350.966 361.972 385.432
349.615 363.367 393.955
351.457 356.09 401.316
354.983 363.529 400.54
353.116 360.211 408.193
350.263 357.584 416.002
349.144 369.308 400.132
355.555 366.755 421.091
358.254 343.34 394.201
358.874 340.262 407.309
364.452 353.585 390.633
364.686 353.367 396.724
360.595 348.083 400.081
358.779 354.361 405.182
360.062 355.082 412.608
365.293 360.661 393.134
356.967 360.195 390.687
359.096 357.618 397.87
361.299 362.423 408.21
361.003 362.485 416.61
358.662 358.597 424.051
356.126 369.525 405.676
365.122 368.66 412.812
358.277 370.714 416.383
369.363 352.751 386.577
367.743 350.967 403.044
369.825 349.2 395.37
366.518 359.096 402.035
372.625 356.583 414.68
365.51 356.425 420.841
370.162 358.707 418.029

POINT_DATA 70
SCALARS radius double
LOOKUP_TABLE default
5.08817
5.08817
5.08817
5.03849
5.04712
4.53728
4.63728
5.03728
5.07091
5.07091
5.08666
4.83849
4.83849
5.08817
4.13849
5.08817
4.13849
5.04712
5.09905
5.07319
5.09905
4.17319
4.27319
4.19905
4.29905
5.0059
5.04712
5.04712
5.04712
5.03728
5.08666
5.0059
5.03849
5.08817
5.09905
5.08817
5.0059
5.08817
5.08817
5.08817
5.0059
5.07319
5.04712
5.03849
5.03849
5.04712
4.5059
5.04712
5.03849
4.4059
4.57319
5.09905
5.07091
5.09905
5.03849
5.03849
5.09905
5.0059
5.0059
5.04712
5.04712
5.0059
4.4059
4.5059
5.0059
4.57319
5.09905
4.02659
5.07319
4.12659

SCALARS status double
LOOKUP_TABLE default
1
1
1
1
1
1
1
1
1
1
1
1
1
1
1
1
1
1
1
1
1
1
1
1
1
1
1
1
1
1
1
1
1
1
1
1
1
1
1
1
1
1
1
1
1
1
1
1
1
1
1
1
1
1
1
1
1
1
1
1
1
1
1
1
1
1
1
1
1
1

SCALARS concentration double
LOOKUP_TABLE default
100
100
100
100
100
100
100
100
100
100
100
100
100
100
100
100
100
100
100
100
100
100
100
100
100
100
100
100
100
100
100
100
100
100
100
100
100
100
100
100
100
100
100
100
100
100
100
100
100
100
100
100
100
100
100
100
100
100
100
100
100
100
100
100
100
100
100
100
100
100

SCALARS fibres double
LOOKUP_TABLE default
0
0
0
0
0
0
0
0
0
0
0
0
0
0
0
0
0
0
0
0
0
0
0
0
0
0
0
0
0
0
0
0
0
0
0
0
0
0
0
0
0
0
0
0
0
0
0
0
0
0
0
0
0
0
0
0
0
0
0
0
0
0
0
0
0
0
0
0
0
0

SCALARS phenot double
LOOKUP_TABLE default
7
7
7
7
7
7
7
7
7
7
7
7
7
7
7
7
7
7
7
7
7
7
7
7
7
7
7
7
7
7
7
7
7
7
7
7
7
7
7
7
7
7
7
7
7
7
7
7
7
7
7
7
7
7
7
7
7
7
7
7
7
7
7
7
7
7
7
7
7
7

SCALARS cont_pheno double
LOOKUP_TABLE default
0.5
0.5
0.5
0.5
0.5
0.5
0.5
0.5
0.5
0.5
0.5
0.5
0.5
0.5
0.5
0.5
0.5
0.5
0.5
0.5
0.5
0.5
0.5
0.5
0.5
0.5
0.5
0.5
0.5
0.5
0.5
0.5
0.5
0.5
0.5
0.5
0.5
0.5
0.55
0.55
0.5
0.5
0.5
0.5
0.5
0.5
0.5
0.5
0.5
0.5
0.5
0.5
0.5
0.5
0.5
0.5
0.5
0.5
0.5
0.5
0.5
0.5
0.5
0.5
0.5
0.5
0.5
0.5
0.5
0.5

SCALARS name double
LOOKUP_TABLE default
50
3
54
11
26
1
62
27
39
2
55
45
61
8
31
53
68
23
13
47
9
44
66
19
67
49
41
29
60
51
43
24
37
56
15
6
59
30
36
4
22
17
21
28
5
14
64
18
20
65
25
57
0
12
7
35
58
10
32
33
38
48
34
42
52
63
16
46
40
69

SCALARS interaction_phenotype double
LOOKUP_TABLE default
0
0
0
0
0
0
0
0
0
0
0
0
0
0
0
0
0
0
0
0
0
0
0
0
0
0
0
0
0
0
0
0
0
0
0
0
0
0
0
0
0
0
0
0
0
0
0
0
0
0
0
0
0
0
0
0
0
0
0
0
0
0
0
0
0
0
0
0
0
0

SCALARS vessel_interaction double
LOOKUP_TABLE default
0
0
0
0
0
0
0
0
0
0
0
0
0
0
0
0
0
0
0
0
0
0
0
0
0
0
0
0
0
0
0
0
0
0
0
0
0
0
0
0
0
0
0
0
0
0
0
0
0
0
0
0
0
0
0
0
0
0
0
0
0
0
0
0
0
0
0
0
0
0

SCALARS is_follower double
LOOKUP_TABLE default
1
1
1
1
1
1
1
1
1
1
1
1
1
1
1
1
1
1
1
1
1
1
1
1
1
1
1
1
1
1
1
1
1
1
1
1
1
1
1
1
1
1
1
1
1
1
1
1
1
1
1
1
1
1
1
1
1
1
1
1
1
1
1
1
1
1
1
1
1
1

SCALARS polarised double
LOOKUP_TABLE default
0
0
0
0
0
0
0
0
0
0
0
0
0
0
0
0
0
0
0
0
0
0
0
0
0
0
0
0
0
0
0
0
0
0
0
0
0
0
0
0
0
0
0
0
0
0
0
0
0
0
0
0
0
0
0
0
0
0
0
0
0
0
0
0
0
0
0
0
0
0

