# vtk DataFile Version 2.0
Unstructured grid legacy vtk file with point scalar data
ASCII

DATASET UNSTRUCTURED_GRID
POINTS 28 double
335.806 367.034 409.924
344.901 345.072 406.695
337.162 354.337 388.745
344.386 355.526 389.334
340.097 351.56 396.569
342.565 347.547 402.243
338.862 360.177 382.125
339.937 359.794 394.606
343.401 365.127 401.047
342.767 359.156 408.249
335.881 365.886 403.483
354.61 353.125 392.948
346.449 355.378 395.586
355.271 353.491 404.196
349.577 350.59 399.389
351.345 359.193 387.582
348.169 358.331 402.466
351.355 360.538 395.464
351.732 359.165 409.985
351.112 367.974 399.25
358.264 342.251 405.124
358.489 348.168 398.873
363.243 353.446 396.63
359.581 359.749 394.374
363.397 356.455 402.953
356.465 361.578 402.305
360.016 357.218 409.757
357.639 365.483 410.086

POINT_DATA 28
SCALARS radius double
LOOKUP_TABLE default
4.33849
4.12287
5.02478
4.64712
5.00303
4.22287
5.07091
5.09905
5.03849
5.09905
4.33849
5.08817
4.64712
5.07091
5.07091
5.02478
5.0059
5.0059
5.08817
5.04712
5.03849
5.03849
4.49905
5.08817
4.59905
5.09905
5.03849
5.09905

SCALARS status double
LOOKUP_TABLE default
1
1
1
1
1
1
1
1
1
1
1
1
1
1
1
1
1
1
1
1
1
1
1
1
1
1
1
1

SCALARS concentration double
LOOKUP_TABLE default
100
100
100
100
100
100
100
100
100
100
100
100
100
100
100
100
100
100
100
100
100
100
100
100
100
100
100
100

SCALARS fibres double
LOOKUP_TABLE default
0
0
0
0
0
0
0
0
0
0
0
0
0
0
0
0
0
0
0
0
0
0
0
0
0
0
0
0

SCALARS phenot double
LOOKUP_TABLE default
7
7
7
7
7
7
7
7
7
7
7
7
7
7
7
7
7
7
7
7
7
7
7
7
7
7
7
7

SCALARS cont_pheno double
LOOKUP_TABLE default
0.5
0.5
0.5
0.5
0.5
0.5
0.5
0.5
0.5
0.5
0.5
0.5
0.5
0.5
0.5
0.5
0.5
0.5
0.5
0.5
0.5
0.5
0.5
0.5
0.5
0.5
0.5
0.5

SCALARS name double
LOOKUP_TABLE default
26
27
3
23
2
1
8
13
19
9
11
15
24
0
6
4
17
22
5
14
20
18
25
7
16
21
12
10

SCALARS interaction_phenotype double
LOOKUP_TABLE default
0
0
0
0
0
0
0
0
0
0
0
0
0
0
0
0
0
0
0
0
0
0
0
0
0
0
0
0

SCALARS vessel_interaction double
LOOKUP_TABLE default
0
0
0
0
0
0
0
0
0
0
0
0
0
0
0
0
0
0
0
0
0
0
0
0
0
0
0
0

SCALARS is_follower double
LOOKUP_TABLE default
1
1
1
1
1
1
1
1
1
1
1
1
1
1
1
1
1
1
1
1
1
1
1
1
1
1
1
1

SCALARS polarised double
LOOKUP_TABLE default
0
0
0
0
0
0
0
0
0
0
0
0
0
0
0
0
0
0
0
0
0
0
0
0
0
0
0
0

