# vtk DataFile Version 2.0
Unstructured grid legacy vtk file with point scalar data
ASCII

DATASET UNSTRUCTURED_GRID
POINTS 31 double
335.764 354.46 388.652
335.085 365.268 402.754
334.578 368.166 410.467
338.503 351.915 396.005
341.162 347.655 402.359
338.734 359.547 382.285
343.964 355.993 387.647
339.694 360.19 394.085
343.203 364.654 400.657
342.848 359.855 408.732
339.331 365.578 412.56
345.836 343.924 408.459
354.722 353.253 393.045
346.373 354.598 395.02
350.981 349.55 399.337
346.522 350.272 401.934
351.765 359.568 386.429
352.044 361.101 394.845
348.023 357.487 402.216
350.022 358.468 413.651
353.219 360.678 407.036
351.166 368.206 399.434
358.725 342.243 405.441
355.908 353.478 403.756
357.569 347.443 398.716
363.628 352.862 396.224
360.293 360.581 393.578
363.953 356.953 403.517
357.243 362.546 401.298
359.773 356.726 410.8
358.403 365.266 410.169

POINT_DATA 31
SCALARS radius double
LOOKUP_TABLE default
5.02478
5.03849
4.19905
5.00303
5.02287
5.07091
5.04712
5.09905
5.03849
5.09905
4.19905
5.02287
5.08817
5.04712
4.22478
4.22478
5.02478
5.0059
5.0059
5.03849
5.03849
5.04712
5.03849
5.07091
5.03849
5.09905
5.08817
5.09905
5.09905
5.03849
5.09905

SCALARS status double
LOOKUP_TABLE default
1
1
1
1
1
1
1
1
1
1
1
1
1
1
1
1
1
1
1
1
1
1
1
1
1
1
1
1
1
1
1

SCALARS concentration double
LOOKUP_TABLE default
100
100
100
100
100
100
100
100
100
100
100
100
100
100
100
100
100
100
100
100
100
100
100
100
100
100
100
100
100
100
100

SCALARS fibres double
LOOKUP_TABLE default
0
0
0
0
0
0
0
0
0
0
0
0
0
0
0
0
0
0
0
0
0
0
0
0
0
0
0
0
0
0
0

SCALARS phenot double
LOOKUP_TABLE default
7
7
7
7
7
7
7
7
7
7
7
7
7
7
7
7
7
7
7
7
7
7
7
7
7
7
7
7
7
7
7

SCALARS cont_pheno double
LOOKUP_TABLE default
0.5
0.5
0.5
0.5
0.5
0.5
0.5
0.5
0.5
0.5
0.5
0.5
0.5
0.5
0.5
0.5
0.5
0.5
0.5
0.5
0.5
0.5
0.5
0.5
0.5
0.5
0.5
0.5
0.5
0.5
0.5

SCALARS name double
LOOKUP_TABLE default
3
11
26
2
1
8
23
13
19
9
29
27
15
24
6
30
4
22
17
5
28
14
20
0
18
25
7
16
21
12
10

SCALARS interaction_phenotype double
LOOKUP_TABLE default
0
0
0
0
0
0
0
0
0
0
0
0
0
0
0
0
0
0
0
0
0
0
0
0
0
0
0
0
0
0
0

SCALARS vessel_interaction double
LOOKUP_TABLE default
0
0
0
0
0
0
0
0
0
0
0
0
0
0
0
0
0
0
0
0
0
0
0
0
0
0
0
0
0
0
0

SCALARS is_follower double
LOOKUP_TABLE default
1
1
1
1
1
1
1
1
1
1
1
1
1
1
1
1
1
1
1
1
1
1
1
1
1
1
1
1
1
1
1

SCALARS polarised double
LOOKUP_TABLE default
0
0
0
0
0
0
0
0
0
0
0
0
0
0
0
0
0
0
0
0
0
0
0
0
0
0
0
0
0
0
0

