# vtk DataFile Version 2.0
Unstructured grid legacy vtk file with point scalar data
ASCII

DATASET UNSTRUCTURED_GRID
POINTS 29 double
335.543 365.438 402.673
335.731 367.42 410.718
345.463 344.405 407.501
336.38 354.263 388.647
339.079 351.674 395.856
342.022 347.929 402.225
338.723 359.605 382.251
344.208 355.82 387.856
339.943 360.042 394.58
343.522 364.933 400.889
342.721 359.389 408.736
354.543 353.288 393.013
346.543 355.286 395.351
350.099 349.484 400.192
355.536 353.557 403.969
351.73 359.858 387.051
348.48 358.193 402.479
351.609 361.355 395.4
351.042 359.402 411.038
353.417 359.849 406.479
350.994 368.396 399.519
358.576 342.275 405.339
358.406 347.534 398.842
363.624 353.02 395.96
359.744 359.987 394.159
363.752 356.461 403.443
356.817 361.992 401.976
359.876 357.613 410.308
357.746 365.466 410.133

POINT_DATA 29
SCALARS radius double
LOOKUP_TABLE default
5.03849
5.03849
4.92287
5.02478
5.00303
5.02287
5.07091
5.04712
5.09905
5.03849
5.09905
5.08817
5.04712
5.07091
5.07091
5.02478
5.0059
5.0059
4.13849
4.23849
5.04712
5.03849
5.03849
5.09905
5.08817
5.09905
5.09905
5.03849
5.09905

SCALARS status double
LOOKUP_TABLE default
1
1
1
1
1
1
1
1
1
1
1
1
1
1
1
1
1
1
1
1
1
1
1
1
1
1
1
1
1

SCALARS concentration double
LOOKUP_TABLE default
100
100
100
100
100
100
100
100
100
100
100
100
100
100
100
100
100
100
100
100
100
100
100
100
100
100
100
100
100

SCALARS fibres double
LOOKUP_TABLE default
0
0
0
0
0
0
0
0
0
0
0
0
0
0
0
0
0
0
0
0
0
0
0
0
0
0
0
0
0

SCALARS phenot double
LOOKUP_TABLE default
7
7
7
7
7
7
7
7
7
7
7
7
7
7
7
7
7
7
7
7
7
7
7
7
7
7
7
7
7

SCALARS cont_pheno double
LOOKUP_TABLE default
0.5
0.5
0.5
0.5
0.5
0.5
0.5
0.5
0.5
0.5
0.5
0.5
0.5
0.5
0.5
0.5
0.5
0.5
0.5
0.5
0.5
0.5
0.5
0.5
0.5
0.5
0.5
0.5
0.5

SCALARS name double
LOOKUP_TABLE default
11
26
27
3
2
1
8
23
13
19
9
15
24
6
0
4
17
22
5
28
14
20
18
25
7
16
21
12
10

SCALARS interaction_phenotype double
LOOKUP_TABLE default
0
0
0
0
0
0
0
0
0
0
0
0
0
0
0
0
0
0
0
0
0
0
0
0
0
0
0
0
0

SCALARS vessel_interaction double
LOOKUP_TABLE default
0
0
0
0
0
0
0
0
0
0
0
0
0
0
0
0
0
0
0
0
0
0
0
0
0
0
0
0
0

SCALARS is_follower double
LOOKUP_TABLE default
1
1
1
1
1
1
1
1
1
1
1
1
1
1
1
1
1
1
1
1
1
1
1
1
1
1
1
1
1

SCALARS polarised double
LOOKUP_TABLE default
0
0
0
0
0
0
0
0
0
0
0
0
0
0
0
0
0
0
0
0
0
0
0
0
0
0
0
0
0

