# vtk DataFile Version 2.0
Unstructured grid legacy vtk file with point scalar data
ASCII

DATASET UNSTRUCTURED_GRID
POINTS 74 double
335.583 354.979 385.102
335.211 355.464 419.305
331.861 357.971 378.558
334.88 363.538 383.599
334.316 355.807 393.233
333.817 362.355 401.273
331.04 370.826 413.435
338.697 339.935 397.985
340.328 340.887 406.629
340.559 350.598 390.812
340.708 354.847 398.656
337.294 347.494 401.894
343.359 346.156 412.48
338.509 352.397 408.551
341.052 352.995 416.112
340.379 357.065 377.004
344.382 364.453 379.723
336.718 364.413 375.716
340.697 360.471 384.388
343.757 356.211 386.544
340.919 361.469 393.243
345.023 361.306 401.343
345.225 357.476 408.491
341.885 360.828 415.219
340.336 373.011 394.534
340.434 367.524 400.737
344.488 365.978 408.862
336.173 367.745 407.572
338.795 368.52 415.69
354.081 338.45 400.322
351.166 343.031 407.887
349.116 340.607 415.26
350.517 345.768 391.367
353.052 353.169 386.331
355.333 351.819 394.242
353.021 346.532 400.607
346.632 349.727 397.162
351.134 354.923 401.474
346.225 349.611 405.57
353.142 356.581 378.645
347.524 355.834 392.23
350.394 361.648 385.489
348.617 364.225 393.093
352.017 361.839 399.74
353.071 360.158 407.84
346.327 362.548 421.981
349.809 357.569 415.774
349.314 369.456 400.522
355.132 366.446 421.743
357.856 343.172 394.082
359.242 340.684 406.597
362.314 353.193 389.275
364.952 353.305 397.186
361.115 347.276 400.814
358.762 354.315 405.191
360.4 355.317 413.201
357.3 359.505 390.053
365.359 359.748 392.706
358.958 358.319 398.154
360.923 362.617 408.353
361.475 362.904 416.994
357.956 359.377 423.711
364.858 355.702 420.872
364.176 366.402 393.577
357.862 365.924 401.046
355.705 370.787 406.571
358.689 371.313 416.047
369.796 353.323 385.095
371.276 348.709 394.911
368.544 350.587 403.874
373.322 355.539 413.417
366.488 359.41 402.777
370.998 361.349 418.714
365.517 369.06 412.198

POINT_DATA 74
SCALARS radius double
LOOKUP_TABLE default
5.08817
4.59905
5.08817
5.08817
5.08817
5.03849
5.04712
5.03728
5.03728
5.07091
5.07091
5.08666
5.03728
5.03849
4.49905
5.03849
5.08817
5.03849
4.4059
4.5059
5.09905
5.07319
5.09905
5.07319
5.09905
5.09905
5.0059
5.04712
5.04712
5.04712
5.03728
5.08666
5.08817
5.03849
5.09905
5.08817
5.0059
5.07319
5.08817
5.08817
5.0059
5.08817
5.0059
5.0059
5.03849
5.07319
5.03849
5.04712
5.0059
5.04712
5.03849
5.0059
5.07319
5.09905
5.07091
5.09905
5.03849
4.39905
5.09905
5.0059
5.0059
5.04712
5.07319
4.49905
5.0059
5.04712
5.0059
5.0059
5.07319
5.0059
5.02659
5.09905
5.02659
5.0059

SCALARS status double
LOOKUP_TABLE default
1
1
1
1
1
1
1
1
1
1
1
1
1
1
1
1
1
1
1
1
1
1
1
1
1
1
1
1
1
1
1
1
1
1
1
1
1
2
1
1
1
1
1
1
1
1
1
1
1
1
1
1
1
1
1
1
1
1
1
1
1
1
1
1
1
1
1
1
1
1
1
1
1
1

SCALARS concentration double
LOOKUP_TABLE default
100
100
100
100
100
100
100
100
100
100
100
100
100
100
100
100
100
100
100
100
100
100
100
100
100
100
100
100
100
100
100
100
100
100
100
100
100
100
100
100
100
100
100
100
100
100
100
100
100
100
100
100
100
100
100
100
100
100
100
100
100
100
100
100
100
100
100
100
100
100
100
100
100
100

SCALARS fibres double
LOOKUP_TABLE default
0
0
0
0
0
0
0
0
0
0
0
0
0
0
0
0
0
0
0
0
0
0
0
0
0
0
0
0
0
0
0
0
0
0
0
0
0
0
0
0
0
0
0
0
0
0
0
0
0
0
0
0
0
0
0
0
0
0
0
0
0
0
0
0
0
0
0
0
0
0
0
0
0
0

SCALARS phenot double
LOOKUP_TABLE default
7
7
7
7
7
7
7
7
7
7
7
7
7
7
7
7
7
7
7
7
7
7
7
7
7
7
7
7
7
7
7
7
7
7
7
7
7
7
7
7
7
7
7
7
7
7
7
7
7
7
7
7
7
7
7
7
7
7
7
7
7
7
7
7
7
7
7
7
7
7
7
7
7
7

SCALARS cont_pheno double
LOOKUP_TABLE default
0.5
0.5
0.5
0.5
0.5
0.5
0.5
0.5
0.5
0.5
0.5
0.5
0.5
0.5
0.5
0.5
0.5
0.5
0.5
0.5
0.5
0.5
0.5
0.5
0.5
0.5
0.5
0.5
0.5
0.5
0.5
0.5
0.5
0.5
0.5
0.5
0.5
0.45
0.5
0.55
0.5
0.55
0.5
0.5
0.5
0.5
0.5
0.5
0.5
0.5
0.5
0.5
0.5
0.5
0.5
0.5
0.5
0.5
0.5
0.5
0.5
0.5
0.5
0.5
0.5
0.5
0.5
0.5
0.5
0.5
0.5
0.5
0.5
0.5

SCALARS name double
LOOKUP_TABLE default
3
71
54
8
50
11
26
1
62
39
2
55
27
45
61
31
53
68
72
23
13
47
9
44
67
19
49
41
29
60
51
43
56
37
15
6
59
17
30
36
24
4
22
70
28
66
5
14
64
18
20
65
25
57
0
12
35
7
58
10
32
33
40
73
21
38
34
42
63
52
46
16
69
48

SCALARS interaction_phenotype double
LOOKUP_TABLE default
0
0
0
0
0
0
0
0
0
0
0
0
0
0
0
0
0
0
0
0
0
0
0
0
0
0
0
0
0
0
0
0
0
0
0
0
0
0
0
0
0
0
0
0
0
0
0
0
0
0
0
0
0
0
0
0
0
0
0
0
0
0
0
0
0
0
0
0
0
0
0
0
0
0

SCALARS vessel_interaction double
LOOKUP_TABLE default
0
0
0
0
0
0
0
0
0
0
0
0
0
0
0
0
0
0
0
0
0
0
0
0
0
0
0
0
0
0
0
0
0
0
0
0
0
0
0
0
0
0
0
0
0
0
0
0
0
0
0
0
0
0
0
0
0
0
0
0
0
0
0
0
0
0
0
0
0
0
0
0
0
0

SCALARS is_follower double
LOOKUP_TABLE default
1
1
1
1
1
1
1
1
1
1
1
1
1
1
1
1
1
1
1
1
1
1
1
1
1
1
1
1
1
1
1
1
1
1
1
1
1
1
1
1
1
1
1
1
1
1
1
1
1
1
1
1
1
1
1
1
1
1
1
1
1
1
1
1
1
1
1
1
1
1
1
1
1
1

SCALARS polarised double
LOOKUP_TABLE default
0
0
0
0
0
0
0
0
0
0
0
0
0
0
0
0
0
0
0
0
0
0
0
0
0
0
0
0
0
0
0
0
0
0
0
0
0
0
0
0
0
0
0
0
0
0
0
0
0
0
0
0
0
0
0
0
0
0
0
0
0
0
0
0
0
0
0
0
0
0
0
0
0
0

