# vtk DataFile Version 2.0
Unstructured grid legacy vtk file with point scalar data
ASCII

DATASET UNSTRUCTURED_GRID
POINTS 29 double
335.43 365.438 402.521
335.461 367.425 410.765
345.601 344.395 407.819
336.088 354.225 388.654
338.966 351.784 396.064
342.074 348.048 402.233
338.785 359.649 382.128
344.189 355.75 387.749
340.148 360.232 394.723
343.296 364.649 400.643
342.829 359.25 408.782
354.476 353.26 393.109
346.543 355.199 395.144
350.02 349.417 400.077
351.964 359.66 386.876
348.427 358.244 402.569
351.685 361.284 395.49
350.787 359.258 411.674
353.506 359.943 406.857
350.894 368.444 399.404
358.633 342.365 405.131
355.605 353.751 404.279
357.982 347.612 398.895
363.707 353.005 395.89
359.942 360.018 393.984
363.836 356.814 403.324
356.995 362.272 401.555
359.899 357.376 410.465
357.923 365.13 410.17

POINT_DATA 29
SCALARS radius double
LOOKUP_TABLE default
5.03849
5.03849
5.02287
5.02478
5.00303
5.02287
5.07091
5.04712
5.09905
5.03849
5.09905
5.08817
5.04712
5.07091
5.02478
5.0059
5.0059
4.33849
4.43849
5.04712
5.03849
5.07091
5.03849
5.09905
5.08817
5.09905
5.09905
5.03849
5.09905

SCALARS status double
LOOKUP_TABLE default
1
1
1
1
1
1
1
1
1
1
1
1
1
1
1
1
1
1
1
1
1
1
1
1
1
1
1
1
1

SCALARS concentration double
LOOKUP_TABLE default
100
100
100
100
100
100
100
100
100
100
100
100
100
100
100
100
100
100
100
100
100
100
100
100
100
100
100
100
100

SCALARS fibres double
LOOKUP_TABLE default
0
0
0
0
0
0
0
0
0
0
0
0
0
0
0
0
0
0
0
0
0
0
0
0
0
0
0
0
0

SCALARS phenot double
LOOKUP_TABLE default
7
7
7
7
7
7
7
7
7
7
7
7
7
7
7
7
7
7
7
7
7
7
7
7
7
7
7
7
7

SCALARS cont_pheno double
LOOKUP_TABLE default
0.5
0.5
0.5
0.5
0.5
0.5
0.5
0.5
0.5
0.5
0.5
0.5
0.5
0.5
0.5
0.5
0.5
0.5
0.5
0.5
0.5
0.5
0.5
0.5
0.5
0.5
0.5
0.5
0.5

SCALARS name double
LOOKUP_TABLE default
11
26
27
3
2
1
8
23
13
19
9
15
24
6
4
17
22
5
28
14
20
0
18
25
7
16
21
12
10

SCALARS interaction_phenotype double
LOOKUP_TABLE default
0
0
0
0
0
0
0
0
0
0
0
0
0
0
0
0
0
0
0
0
0
0
0
0
0
0
0
0
0

SCALARS vessel_interaction double
LOOKUP_TABLE default
0
0
0
0
0
0
0
0
0
0
0
0
0
0
0
0
0
0
0
0
0
0
0
0
0
0
0
0
0

SCALARS is_follower double
LOOKUP_TABLE default
1
1
1
1
1
1
1
1
1
1
1
1
1
1
1
1
1
1
1
1
1
1
1
1
1
1
1
1
1

SCALARS polarised double
LOOKUP_TABLE default
0
0
0
0
0
0
0
0
0
0
0
0
0
0
0
0
0
0
0
0
0
0
0
0
0
0
0
0
0

