# vtk DataFile Version 2.0
Unstructured grid legacy vtk file with point scalar data
ASCII

DATASET UNSTRUCTURED_GRID
POINTS 17 double
339.935 351.387 397.462
344.815 347.706 403.382
338.222 358.123 381.795
340.138 357.075 389.605
338.533 363.434 401.796
343.206 359.275 396.656
344.795 358.728 405.415
353.878 351.98 404.668
348.504 353.848 398.747
352.527 358.114 391.912
350.395 362.717 400.388
351.969 358.231 410.097
355.987 352.001 396.107
362.932 355.591 401.802
358.22 359.834 397.568
359.969 355.986 408.407
357.271 363.434 405.36

POINT_DATA 17
SCALARS radius double
LOOKUP_TABLE default
5.00303
5.0685
5.07091
5.02478
5.08817
5.08817
5.09905
5.07091
5.07091
5.02478
5.09905
5.08817
4.92478
4.63849
5.08817
4.73849
5.03849

SCALARS status double
LOOKUP_TABLE default
1
1
1
1
1
1
1
1
1
1
1
1
1
1
1
1
1

SCALARS concentration double
LOOKUP_TABLE default
100
100
100
100
100
100
100
100
100
100
100
100
100
100
100
100
100

SCALARS fibres double
LOOKUP_TABLE default
0
0
0
0
0
0
0
0
0
0
0
0
0
0
0
0
0

SCALARS phenot double
LOOKUP_TABLE default
7
7
7
7
7
7
7
7
7
7
7
7
7
7
7
7
7

SCALARS cont_pheno double
LOOKUP_TABLE default
0.5
0.5
0.5
0.5
0.5
0.5
0.5
0.5
0.5
0.5
0.5
0.5
0.5
0.5
0.5
0.5
0.5

SCALARS name double
LOOKUP_TABLE default
2
1
8
3
11
13
9
0
6
4
14
5
15
16
7
12
10

SCALARS interaction_phenotype double
LOOKUP_TABLE default
0
0
0
0
0
0
0
0
0
0
0
0
0
0
0
0
0

SCALARS vessel_interaction double
LOOKUP_TABLE default
0
0
0
0
0
0
0
0
0
0
0
0
0
0
0
0
0

SCALARS is_follower double
LOOKUP_TABLE default
1
1
1
1
1
1
1
1
1
1
1
1
1
1
1
1
1

SCALARS polarised double
LOOKUP_TABLE default
0
0
0
0
0
0
0
0
0
0
0
0
0
0
0
0
0

