# vtk DataFile Version 2.0
Unstructured grid legacy vtk file with point scalar data
ASCII

DATASET UNSTRUCTURED_GRID
POINTS 5 double
344.802 353.245 397.508
340.037 358.206 392.704
346.403 347.208 403.029
351.943 353.665 404.541
352.458 355.531 397.302

POINT_DATA 5
SCALARS radius double
LOOKUP_TABLE default
5.00303
5.00303
5.0685
4.80303
4.90303

SCALARS status double
LOOKUP_TABLE default
1
1
1
1
1

SCALARS concentration double
LOOKUP_TABLE default
100
100
100
100
100

SCALARS fibres double
LOOKUP_TABLE default
0
0
0
0
0

SCALARS phenot double
LOOKUP_TABLE default
7
7
7
7
7

SCALARS cont_pheno double
LOOKUP_TABLE default
0.5
0.5
0.5
0.5
0.5

SCALARS name double
LOOKUP_TABLE default
2
3
1
0
4

SCALARS interaction_phenotype double
LOOKUP_TABLE default
0
0
0
0
0

SCALARS vessel_interaction double
LOOKUP_TABLE default
0
0
0
0
0

SCALARS is_follower double
LOOKUP_TABLE default
1
1
1
1
1

SCALARS polarised double
LOOKUP_TABLE default
0
0
0
0
0

