# vtk DataFile Version 2.0
Unstructured grid legacy vtk file with point scalar data
ASCII

DATASET UNSTRUCTURED_GRID
POINTS 81 double
331.51 357.743 378.619
333.523 363.719 384.178
333.876 355.628 393.541
333.599 361.898 401.184
331.212 359.24 420.688
331.343 370.923 413.594
338.067 339.531 397.025
342.175 340.95 402.484
340.591 341.16 408.449
336.082 354.904 385.339
340.681 350.812 391.086
344.831 354.426 385.249
339.962 354.146 398.511
337.758 347.127 402.583
344.079 346.272 412.244
338.762 352.436 408.893
335.887 354.355 419.737
342.1 352.692 416.397
336.155 364.129 375.228
340.858 357.108 377.88
341.126 361.395 385.126
340.724 361.158 393.056
344.922 360.393 400.051
345.143 357.372 408.283
344.295 365.074 405.591
341.078 361.174 415.404
344.508 365.595 379.169
340.037 373.73 394.022
340.102 367.517 399.499
345.439 366.776 412.111
336.565 367.335 407.522
338.989 369.433 415.796
350.292 345.509 391.201
352.353 337.038 399.23
350.931 342.822 407.633
349.814 340.369 415.745
352.616 352.877 386.656
355.059 351.741 394.251
345.75 349.202 404.861
352.987 346.419 400.348
345.983 349.299 397.126
350.947 354.635 401.426
352.756 357.069 378.918
347.603 356.194 393.156
350.025 361.387 385.635
348.388 364.957 393.243
352.815 362.542 399.629
352.89 360.102 407.711
346.802 362.451 421.857
349.473 357.543 415.149
348.857 369.667 400.537
355.284 370.835 406.957
354.55 366.133 421.276
358.189 343.47 394.685
357.111 340.894 402.664
360.757 340.934 408.418
362.26 352.655 388.857
365.214 352.935 396.963
361.603 347.042 401.746
359.162 354.472 405.672
356.47 353.356 415.233
364.96 355.484 420.79
357.207 359.132 390.253
364.828 358.823 392.598
359.418 358.288 398.344
361.94 356.054 413.12
360.959 362.381 408.851
361.772 362.861 417.348
358.267 359.009 423.709
364.178 367.47 393.896
359.509 366.6 401.214
365.424 369.097 412.257
357.406 370.205 414.9
362.627 372.777 419.757
370.131 353.496 385.362
371.813 348.266 395.047
368.742 350.534 403.969
373.667 355.359 413.301
369.297 362.837 391.71
366.214 358.984 403.171
370.717 361.295 418.629

POINT_DATA 81
SCALARS radius double
LOOKUP_TABLE default
5.08817
5.08817
5.08817
5.03849
4.66775
5.04712
5.03728
4.49809
4.59809
5.08817
5.07091
5.0059
5.07091
5.08666
5.03728
5.03849
4.66775
5.09905
5.03849
5.03849
5.0059
5.09905
5.07319
5.09905
4.97319
5.07319
5.08817
5.09905
5.09905
5.07319
5.04712
5.04712
5.08817
5.04712
5.03728
5.08666
5.03849
5.09905
5.08817
5.08817
5.0059
5.07319
5.08817
5.0059
5.08817
5.0059
5.0059
5.03849
5.07319
5.03849
5.04712
5.04712
5.0059
5.04712
4.59905
4.69905
5.0059
5.07319
5.09905
5.07091
4.44712
5.07319
5.03849
4.24712
5.09905
4.34712
5.0059
5.0059
5.04712
5.09905
5.0059
5.0059
4.77319
4.77319
5.0059
5.07319
5.0059
5.02659
4.34712
5.09905
5.02659

SCALARS status double
LOOKUP_TABLE default
1
1
1
1
1
1
1
1
1
1
1
1
1
1
1
1
1
1
1
1
1
1
1
1
1
1
1
1
1
1
1
1
1
1
1
1
1
1
1
1
1
2
1
1
1
1
1
1
1
1
1
1
1
1
1
1
1
1
1
1
1
1
1
1
1
1
1
1
1
1
1
1
1
1
1
1
1
1
1
1
1

SCALARS concentration double
LOOKUP_TABLE default
100
100
100
100
100
100
100
100
100
100
100
100
100
100
100
100
100
100
100
100
100
100
100
100
100
100
100
100
100
100
100
100
100
100
100
100
100
100
100
100
100
100
100
100
100
100
100
100
100
100
100
100
100
100
100
100
100
100
100
100
100
100
100
100
100
100
100
100
100
100
100
100
100
100
100
100
100
100
100
100
100

SCALARS fibres double
LOOKUP_TABLE default
0
0
0
0
0
0
0
0
0
0
0
0
0
0
0
0
0
0
0
0
0
0
0
0
0
0
0
0
0
0
0
0
0
0
0
0
0
0
0
0
0
0
0
0
0
0
0
0
0
0
0
0
0
0
0
0
0
0
0
0
0
0
0
0
0
0
0
0
0
0
0
0
0
0
0
0
0
0
0
0
0

SCALARS phenot double
LOOKUP_TABLE default
7
7
7
7
7
7
7
7
7
7
7
7
7
7
7
7
7
7
7
7
7
7
7
7
7
7
7
7
7
7
7
7
7
7
7
7
7
7
7
7
7
7
7
7
7
7
7
7
7
7
7
7
7
7
7
7
7
7
7
7
7
7
7
7
7
7
7
7
7
7
7
7
7
7
7
7
7
7
7
7
7

SCALARS cont_pheno double
LOOKUP_TABLE default
0.5
0.5
0.5
0.5
0.5
0.5
0.5
0.5
0.5
0.5
0.5
0.5
0.5
0.5
0.5
0.5
0.5
0.5
0.5
0.5
0.5
0.5
0.5
0.5
0.5
0.5
0.5
0.5
0.5
0.5
0.5
0.5
0.5
0.5
0.5
0.5
0.5
0.5
0.5
0.5
0.5
0.45
0.55
0.5
0.55
0.5
0.5
0.5
0.5
0.5
0.5
0.5
0.5
0.5
0.5
0.5
0.5
0.5
0.5
0.5
0.5
0.5
0.5
0.5
0.5
0.5
0.5
0.5
0.5
0.5
0.5
0.5
0.5
0.5
0.5
0.5
0.5
0.5
0.5
0.5
0.5

SCALARS name double
LOOKUP_TABLE default
54
8
50
11
76
26
1
78
62
3
39
23
2
55
27
45
71
61
68
31
72
13
47
9
74
44
53
67
19
49
41
29
56
60
51
43
37
15
30
6
59
17
36
24
4
22
70
28
66
5
14
38
64
18
77
20
65
25
57
0
79
40
35
7
58
12
10
32
33
73
21
48
34
75
42
63
52
46
80
16
69

SCALARS interaction_phenotype double
LOOKUP_TABLE default
0
0
0
0
0
0
0
0
0
0
0
0
0
0
0
0
0
0
0
0
0
0
0
0
0
0
0
0
0
0
0
0
0
0
0
0
0
0
0
0
0
0
0
0
0
0
0
0
0
0
0
0
0
0
0
0
0
0
0
0
0
0
0
0
0
0
0
0
0
0
0
0
0
0
0
0
0
0
0
0
0

SCALARS vessel_interaction double
LOOKUP_TABLE default
0
0
0
0
0
0
0
0
0
0
0
0
0
0
0
0
0
0
0
0
0
0
0
0
0
0
0
0
0
0
0
0
0
0
0
0
0
0
0
0
0
0
0
0
0
0
0
0
0
0
0
0
0
0
0
0
0
0
0
0
0
0
0
0
0
0
0
0
0
0
0
0
0
0
0
0
0
0
0
0
0

SCALARS is_follower double
LOOKUP_TABLE default
1
1
1
1
1
1
1
1
1
1
1
1
1
1
1
1
1
1
1
1
1
1
1
1
1
1
1
1
1
1
1
1
1
1
1
1
1
1
1
1
1
1
1
1
1
1
1
1
1
1
1
1
1
1
1
1
1
1
1
1
1
1
1
1
1
1
1
1
1
1
1
1
1
1
1
1
1
1
1
1
1

SCALARS polarised double
LOOKUP_TABLE default
0
0
0
0
0
0
0
0
0
0
0
0
0
0
0
0
0
0
0
0
0
0
0
0
0
0
0
0
0
0
0
0
0
0
0
0
0
0
0
0
0
0
0
0
0
0
0
0
0
0
0
0
0
0
0
0
0
0
0
0
0
0
0
0
0
0
0
0
0
0
0
0
0
0
0
0
0
0
0
0
0

