# vtk DataFile Version 2.0
Unstructured grid legacy vtk file with point scalar data
ASCII

DATASET UNSTRUCTURED_GRID
POINTS 50 double
335.76 355.866 388.534
334.347 363.492 401.102
331.794 371.155 413.406
339.664 345.041 402.469
344.99 345.016 408.911
341.306 349.121 390.085
339.619 352.242 398.159
340.377 352.431 406.58
339.486 362.632 383.789
337.054 358.22 376.664
344.18 356.11 386.284
341.258 359.602 393.923
344.14 359.734 406.784
342.681 364.453 411.054
343.453 360.437 415.34
342.222 365.704 400.244
337.184 368.361 407.281
339.169 367.784 415.531
348.577 340.665 414.78
347.266 353.923 394.307
352.682 354.326 387.347
346.458 350.687 403.953
350.989 347.654 399.219
353.533 356.848 379.78
349.987 362.41 385.998
349.038 362.435 394.165
350.059 356.181 401.47
346.544 360.567 400.152
353.185 360.158 407.883
350.155 357.636 415.637
350.16 368.66 399.123
357.964 340.175 405.05
355.779 353.496 395.062
356.628 353.607 402.762
358.74 346.003 398.897
363.879 352.596 397.559
359.565 355.014 410.404
364.481 359.694 392.757
356.549 360.921 390.74
355.628 361.291 399.613
363.485 358.418 402.98
360.507 362.577 408.313
360.815 360.681 416.199
359.699 357.854 424.105
356.822 368.164 404.987
363.06 367.354 412.034
358.115 369.106 416.819
366.895 352.482 389.4
366.504 355.736 420.633
371.746 357.388 415.668

POINT_DATA 50
SCALARS radius double
LOOKUP_TABLE default
5.02478
5.03849
5.04712
5.02287
5.08666
5.07091
5.07091
4.88817
5.02478
5.02478
5.04712
5.09905
5.09905
4.2059
4.2059
5.03849
5.04712
5.04712
5.08666
5.04712
5.03849
4.78817
5.02478
5.08817
5.08817
5.0059
4.47319
4.47319
5.03849
5.03849
5.04712
5.03849
5.03849
5.07091
5.03849
5.04712
5.09905
5.03849
5.03849
5.04712
5.09905
4.5059
5.0059
5.04712
5.04712
4.5059
5.04712
5.04712
4.77319
4.87319

SCALARS status double
LOOKUP_TABLE default
1
1
1
1
1
1
1
1
1
1
1
1
1
1
1
1
1
1
1
1
1
1
1
1
1
1
1
1
1
1
1
1
1
1
1
1
1
1
1
1
1
1
1
1
1
1
1
1
1
1

SCALARS concentration double
LOOKUP_TABLE default
100
100
100
100
100
100
100
100
100
100
100
100
100
100
100
100
100
100
100
100
100
100
100
100
100
100
100
100
100
100
100
100
100
100
100
100
100
100
100
100
100
100
100
100
100
100
100
100
100
100

SCALARS fibres double
LOOKUP_TABLE default
0
0
0
0
0
0
0
0
0
0
0
0
0
0
0
0
0
0
0
0
0
0
0
0
0
0
0
0
0
0
0
0
0
0
0
0
0
0
0
0
0
0
0
0
0
0
0
0
0
0

SCALARS phenot double
LOOKUP_TABLE default
7
7
7
7
7
7
7
7
7
7
7
7
7
7
7
7
7
7
7
7
7
7
7
7
7
7
7
7
7
7
7
7
7
7
7
7
7
7
7
7
7
7
7
7
7
7
7
7
7
7

SCALARS cont_pheno double
LOOKUP_TABLE default
0.5
0.5
0.5
0.5
0.5
0.5
0.5
0.5
0.5
0.5
0.5
0.5
0.5
0.5
0.5
0.5
0.5
0.5
0.5
0.5
0.5
0.5
0.5
0.55
0.55
0.5
0.5
0.5
0.5
0.5
0.5
0.5
0.5
0.5
0.5
0.5
0.5
0.5
0.5
0.5
0.5
0.5
0.5
0.5
0.5
0.5
0.5
0.5
0.5
0.5

SCALARS name double
LOOKUP_TABLE default
3
11
26
1
27
39
2
45
8
31
23
13
9
49
44
19
41
29
43
24
37
30
6
36
4
22
17
47
28
5
14
20
15
0
18
25
12
7
35
21
16
10
32
33
38
48
34
42
40
46

SCALARS interaction_phenotype double
LOOKUP_TABLE default
0
0
0
0
0
0
0
0
0
0
0
0
0
0
0
0
0
0
0
0
0
0
0
0
0
0
0
0
0
0
0
0
0
0
0
0
0
0
0
0
0
0
0
0
0
0
0
0
0
0

SCALARS vessel_interaction double
LOOKUP_TABLE default
0
0
0
0
0
0
0
0
0
0
0
0
0
0
0
0
0
0
0
0
0
0
0
0
0
0
0
0
0
0
0
0
0
0
0
0
0
0
0
0
0
0
0
0
0
0
0
0
0
0

SCALARS is_follower double
LOOKUP_TABLE default
1
1
1
1
1
1
1
1
1
1
1
1
1
1
1
1
1
1
1
1
1
1
1
1
1
1
1
1
1
1
1
1
1
1
1
1
1
1
1
1
1
1
1
1
1
1
1
1
1
1

SCALARS polarised double
LOOKUP_TABLE default
0
0
0
0
0
0
0
0
0
0
0
0
0
0
0
0
0
0
0
0
0
0
0
0
0
0
0
0
0
0
0
0
0
0
0
0
0
0
0
0
0
0
0
0
0
0
0
0
0
0

