# vtk DataFile Version 2.0
Unstructured grid legacy vtk file with point scalar data
ASCII

DATASET UNSTRUCTURED_GRID
POINTS 11 double
340.022 351.219 397.412
340.177 357.859 384.324
340.777 358.584 393.123
345.734 347.951 403.306
353.235 352.68 404.474
347.673 354.418 398.036
354.304 356.511 393.48
347.465 360.508 403.855
354.865 363.897 403.952
351.054 358.32 410.697
359.464 357.937 399.961

POINT_DATA 11
SCALARS radius double
LOOKUP_TABLE default
5.00303
5.07091
5.07091
5.0685
5.07091
5.07091
5.07091
5.03849
5.03849
5.08817
5.02478

SCALARS status double
LOOKUP_TABLE default
1
1
1
1
1
1
1
1
1
1
1

SCALARS concentration double
LOOKUP_TABLE default
100
100
100
100
100
100
100
100
100
100
100

SCALARS fibres double
LOOKUP_TABLE default
0
0
0
0
0
0
0
0
0
0
0

SCALARS phenot double
LOOKUP_TABLE default
7
7
7
7
7
7
7
7
7
7
7

SCALARS cont_pheno double
LOOKUP_TABLE default
0.5
0.5
0.5
0.5
0.5
0.5
0.5
0.5
0.5
0.5
0.5

SCALARS name double
LOOKUP_TABLE default
2
8
3
1
0
6
4
9
10
5
7

SCALARS interaction_phenotype double
LOOKUP_TABLE default
0
0
0
0
0
0
0
0
0
0
0

SCALARS vessel_interaction double
LOOKUP_TABLE default
0
0
0
0
0
0
0
0
0
0
0

SCALARS is_follower double
LOOKUP_TABLE default
1
1
1
1
1
1
1
1
1
1
1

SCALARS polarised double
LOOKUP_TABLE default
0
0
0
0
0
0
0
0
0
0
0

