# vtk DataFile Version 2.0
Unstructured grid legacy vtk file with point scalar data
ASCII

DATASET UNSTRUCTURED_GRID
POINTS 93 double
334.218 354.208 399.464
335.485 353.268 419.53
331.424 357.337 378.558
332.757 363.732 382.297
333.756 356.496 392.402
335.461 362.92 387.84
334.397 360.787 399.868
331.644 364.883 404.074
330.406 360.313 420.493
331.418 370.864 413.505
336.82 339.63 396.081
343.233 340.161 400.261
337.897 341.353 409.319
345.649 338.081 408.465
345.471 345.478 412.603
344.864 354.096 384.707
336.494 354.769 384.553
340.696 350.941 391.331
340.526 354.02 398.549
337.962 346.895 402.168
338.379 351.905 409.463
343.228 352.671 416.378
336.36 364.245 375.748
340.502 356.982 377.675
344.576 364.871 378.483
341.534 361.34 385.316
340.202 361.48 392.528
345.053 360.236 398.515
342.811 361.736 403.874
340.044 360.283 396.765
345.043 357.255 408.489
338.032 363.626 406.659
340.946 360.76 415.132
340.235 373.893 393.734
339.742 367.229 400.079
344.499 366.897 406.961
336.165 368.541 408.35
339.334 369.353 416.036
350.04 345.494 387.685
350.865 344.036 395.494
350.709 336.294 398.449
349.21 342.735 403.232
353.23 342.925 409.704
349.967 339.947 416.472
353.253 352.898 386.415
355.054 351.938 394.674
346.196 349.857 397.577
354.109 347.923 402.029
352.582 354.611 401.088
345.813 349.68 405.647
355.571 352.581 415.349
352.663 356.576 379.089
347.988 356.315 392.557
349.835 361.164 385.639
348.001 365.222 392.987
352.361 363.175 399.78
347.968 356.597 401.294
353.082 359.711 407.384
346.887 362.323 421.39
349.511 358.41 415.094
347.91 370.303 400.398
347.224 366.54 413.761
354.889 371.881 406.252
354.678 365.858 421.513
358.958 343.977 394.872
357.164 339.521 402.851
361.587 341.396 410.012
361.302 352.1 389.173
364.637 350.937 398.089
362.417 346.099 402.739
359.009 353.944 405.589
356.927 359.367 390.181
364.405 355.637 395.795
358.944 358.842 398.344
363.335 355.823 412.828
360.904 362.767 408.968
361.756 362.723 417.075
358.298 358.646 423.915
364.161 366.72 394.507
359.874 366.795 401.751
357.237 369.581 414.149
363.065 373.698 418.327
361.756 370.727 425.85
369.714 353.241 386.032
371.358 347.809 395.517
369.423 350.114 403.338
373.487 355.163 413.38
365.779 354.99 420.989
365.523 359.252 390.955
371.592 364.284 390.636
366.065 358.123 403.321
370.058 361.546 418.03
365.627 368.692 412.263

POINT_DATA 93
SCALARS radius double
LOOKUP_TABLE default
4.42478
5.06775
5.08817
4.43849
5.08817
4.43849
4.29905
4.39905
5.06775
5.04712
5.03728
5.06699
5.09809
5.06699
5.03728
5.0059
5.08817
5.07091
4.52478
5.08666
5.03849
5.09905
5.03849
5.03849
5.08817
5.0059
4.14712
5.07319
4.42659
4.14712
5.09905
4.1059
5.07319
5.09905
5.09905
4.52659
4.2059
5.04712
5.03849
5.03849
5.04712
5.09809
5.09809
5.08666
5.03849
5.09905
5.0059
5.08817
4.32659
5.08817
5.04712
5.08817
5.0059
5.08817
5.0059
5.0059
4.32659
5.03849
5.07319
5.03849
5.04712
5.07319
5.04712
5.0059
5.04712
5.09905
5.09905
5.0059
4.42659
5.09905
5.07091
5.03849
4.42659
5.09905
5.04712
5.0059
5.0059
5.04712
5.09905
5.0059
5.07319
5.02659
5.02659
5.0059
5.07319
5.0059
5.02659
5.07319
5.04712
5.04712
5.09905
5.02659
5.0059

SCALARS status double
LOOKUP_TABLE default
1
1
1
1
1
1
1
1
1
1
1
1
1
1
1
1
1
1
1
1
1
1
1
1
1
1
1
1
1
1
1
1
1
1
1
1
1
1
1
1
1
1
1
1
1
1
1
1
2
1
1
1
1
1
1
1
2
1
1
1
1
1
1
1
1
1
1
1
1
1
1
1
1
1
1
1
1
1
1
1
1
1
1
1
1
1
1
1
1
1
1
1
1

SCALARS concentration double
LOOKUP_TABLE default
100
100
100
100
100
100
100
100
100
100
100
100
100
100
100
100
100
100
100
100
100
100
100
100
100
100
100
100
100
100
100
100
100
100
100
100
100
100
100
100
100
100
100
100
100
100
100
100
100
100
100
100
100
100
100
100
100
100
100
100
100
100
100
100
100
100
100
100
100
100
100
100
100
100
100
100
100
100
100
100
100
100
100
100
100
100
100
100
100
100
100
100
100

SCALARS fibres double
LOOKUP_TABLE default
0
0
0
0
0
0
0
0
0
0
0
0
0
0
0
0
0
0
0
0
0
0
0
0
0
0
0
0
0
0
0
0
0
0
0
0
0
0
0
0
0
0
0
0
0
0
0
0
0
0
0
0
0
0
0
0
0
0
0
0
0
0
0
0
0
0
0
0
0
0
0
0
0
0
0
0
0
0
0
0
0
0
0
0
0
0
0
0
0
0
0
0
0

SCALARS phenot double
LOOKUP_TABLE default
7
7
7
7
7
7
7
7
7
7
7
7
7
7
7
7
7
7
7
7
7
7
7
7
7
7
7
7
7
7
7
7
7
7
7
7
7
7
7
7
7
7
7
7
7
7
7
7
7
7
7
7
7
7
7
7
7
7
7
7
7
7
7
7
7
7
7
7
7
7
7
7
7
7
7
7
7
7
7
7
7
7
7
7
7
7
7
7
7
7
7
7
7

SCALARS cont_pheno double
LOOKUP_TABLE default
0.5
0.5
0.5
0.5
0.5
0.5
0.5
0.5
0.5
0.5
0.5
0.5
0.5
0.5
0.5
0.5
0.5
0.5
0.5
0.5
0.5
0.5
0.5
0.5
0.5
0.5
0.5
0.5
0.5
0.5
0.5
0.5
0.5
0.5
0.5
0.5
0.5
0.5
0.5
0.5
0.5
0.5
0.5
0.5
0.5
0.5
0.5
0.5
0.45
0.5
0.5
0.55
0.5
0.55
0.5
0.5
0.45
0.5
0.5
0.5
0.5
0.5
0.5
0.5
0.5
0.5
0.5
0.5
0.5
0.5
0.5
0.5
0.5
0.5
0.5
0.5
0.5
0.5
0.5
0.5
0.5
0.5
0.5
0.5
0.5
0.5
0.5
0.5
0.5
0.5
0.5
0.5
0.5

SCALARS name double
LOOKUP_TABLE default
85
71
54
8
50
87
11
88
76
26
1
78
62
81
27
23
3
39
2
55
45
61
68
31
53
72
13
47
86
92
9
91
44
67
19
74
41
29
56
83
60
82
51
43
37
15
59
6
17
30
79
36
24
4
22
70
90
28
66
5
14
49
38
64
18
77
20
65
25
57
0
35
89
58
12
10
32
33
73
21
34
75
84
42
63
52
46
40
7
80
16
69
48

SCALARS interaction_phenotype double
LOOKUP_TABLE default
0
0
0
0
0
0
0
0
0
0
0
0
0
0
0
0
0
0
0
0
0
0
0
0
0
0
0
0
0
0
0
0
0
0
0
0
0
0
0
0
0
0
0
0
0
0
0
0
0
0
0
0
0
0
0
0
0
0
0
0
0
0
0
0
0
0
0
0
0
0
0
0
0
0
0
0
0
0
0
0
0
0
0
0
0
0
0
0
0
0
0
0
0

SCALARS vessel_interaction double
LOOKUP_TABLE default
0
0
0
0
0
0
0
0
0
0
0
0
0
0
0
0
0
0
0
0
0
0
0
0
0
0
0
0
0
0
0
0
0
0
0
0
0
0
0
0
0
0
0
0
0
0
0
0
0
0
0
0
0
0
0
0
0
0
0
0
0
0
0
0
0
0
0
0
0
0
0
0
0
0
0
0
0
0
0
0
0
0
0
0
0
0
0
0
0
0
0
0
0

SCALARS is_follower double
LOOKUP_TABLE default
1
1
1
1
1
1
1
1
1
1
1
1
1
1
1
1
1
1
1
1
1
1
1
1
1
1
1
1
1
1
1
1
1
1
1
1
1
1
1
1
1
1
1
1
1
1
1
1
1
1
1
1
1
1
1
1
1
1
1
1
1
1
1
1
1
1
1
1
1
1
1
1
1
1
1
1
1
1
1
1
1
1
1
1
1
1
1
1
1
1
1
1
1

SCALARS polarised double
LOOKUP_TABLE default
0
0
0
0
0
0
0
0
0
0
0
0
0
0
0
0
0
0
0
0
0
0
0
0
0
0
0
0
0
0
0
0
0
0
0
0
0
0
0
0
0
0
0
0
0
0
0
0
0
0
0
0
0
0
0
0
0
0
0
0
0
0
0
0
0
0
0
0
0
0
0
0
0
0
0
0
0
0
0
0
0
0
0
0
0
0
0
0
0
0
0
0
0

