# vtk DataFile Version 2.0
Unstructured grid legacy vtk file with point scalar data
ASCII

DATASET UNSTRUCTURED_GRID
POINTS 19 double
340.421 351.221 396.903
344.457 347.629 403.721
338.688 359.319 381.899
339.636 355.991 389.408
338.038 363.642 403.06
341.547 359.728 396.13
344.532 358.58 405.541
355.247 352.496 394.699
354.391 352.347 404.728
348.661 352.241 398.882
351.559 358.29 391.989
351.447 365.09 400.271
348.454 359.427 399.113
351.799 358.564 410.655
362.915 354.497 401.315
358.703 348.649 399.18
357.857 360.188 397.526
360.075 356.411 408.935
356.785 363.576 405.569

POINT_DATA 19
SCALARS radius double
LOOKUP_TABLE default
5.00303
5.0685
5.07091
5.02478
5.08817
5.08817
5.09905
4.48817
5.07091
5.07091
5.02478
4.84712
4.84712
5.08817
5.03849
4.58817
5.08817
5.03849
5.03849

SCALARS status double
LOOKUP_TABLE default
1
1
1
1
1
1
1
1
1
1
1
1
1
1
1
1
1
1
1

SCALARS concentration double
LOOKUP_TABLE default
100
100
100
100
100
100
100
100
100
100
100
100
100
100
100
100
100
100
100

SCALARS fibres double
LOOKUP_TABLE default
0
0
0
0
0
0
0
0
0
0
0
0
0
0
0
0
0
0
0

SCALARS phenot double
LOOKUP_TABLE default
7
7
7
7
7
7
7
7
7
7
7
7
7
7
7
7
7
7
7

SCALARS cont_pheno double
LOOKUP_TABLE default
0.5
0.5
0.5
0.5
0.5
0.5
0.5
0.5
0.5
0.5
0.5
0.5
0.5
0.5
0.5
0.5
0.5
0.5
0.5

SCALARS name double
LOOKUP_TABLE default
2
1
8
3
11
13
9
15
0
6
4
14
17
5
16
18
7
12
10

SCALARS interaction_phenotype double
LOOKUP_TABLE default
0
0
0
0
0
0
0
0
0
0
0
0
0
0
0
0
0
0
0

SCALARS vessel_interaction double
LOOKUP_TABLE default
0
0
0
0
0
0
0
0
0
0
0
0
0
0
0
0
0
0
0

SCALARS is_follower double
LOOKUP_TABLE default
1
1
1
1
1
1
1
1
1
1
1
1
1
1
1
1
1
1
1

SCALARS polarised double
LOOKUP_TABLE default
0
0
0
0
0
0
0
0
0
0
0
0
0
0
0
0
0
0
0

