# vtk DataFile Version 2.0
Unstructured grid legacy vtk file with point scalar data
ASCII

DATASET UNSTRUCTURED_GRID
POINTS 71 double
335.021 354.301 385.411
331.574 357.776 378.595
334.313 355.656 393.725
333.575 362.573 400.907
331.248 370.623 413.469
338.658 339.717 398.396
340.132 340.62 406.413
340.789 350.29 390.722
340.869 354.787 398.605
337.301 347.783 401.688
343.281 345.935 411.974
338.517 352.491 408.543
339.411 354.169 416.559
336.013 362.717 384.025
340.267 356.893 376.321
343.83 364.28 380.453
337.129 363.812 375.79
342.705 357.966 385.792
341.097 361.352 393.814
345.177 361.351 401.048
345.067 357.576 408.581
342.069 361.239 414.943
345.636 361.832 421.466
340.558 367.057 400.643
340.452 372.253 395.217
344.714 366.075 409.491
336.396 367.975 407.473
339.072 368.554 415.718
350.423 345.542 391.481
354.486 338.391 400.447
351.229 342.796 407.766
349.12 340.824 415.233
353.072 353.283 386.399
355.375 351.806 394.315
352.758 346.669 400.638
346.807 349.685 397.195
351.298 355.536 401.397
346.535 349.98 405.442
352.923 356.786 378.764
347.431 355.665 392.052
350.832 361.723 385.267
349.408 363.668 393.378
351.835 361.838 399.462
353.267 360.588 408.285
349.929 357.678 415.433
349.192 369.322 400.738
354.83 366.435 421.367
358.059 343.242 394.199
358.782 340.177 407.288
363.213 353.215 389.822
364.832 353.697 397.427
360.789 347.523 400.708
358.73 354.39 405.442
360.123 355.236 413.478
356.969 360.015 390.267
365.095 361.097 393.435
356.201 364.512 400.983
358.943 358.568 398.015
360.916 362.168 408.213
361.114 363.068 416.781
357.989 358.977 423.962
365.009 355.691 421.128
356.238 369.61 405.798
365.34 368.791 412.026
358.625 371.436 416.104
369.974 353.317 385.455
370.864 348.747 395.253
368.09 350.536 403.614
366.656 359.682 402.776
373.457 355.82 413.176
370.715 360.813 418.294

POINT_DATA 71
SCALARS radius double
LOOKUP_TABLE default
5.08817
5.08817
5.08817
5.03849
5.04712
5.03728
5.03728
5.07091
5.07091
5.08666
5.03728
5.03849
5.03849
5.08817
4.83849
5.08817
4.83849
5.04712
5.09905
5.07319
5.09905
4.87319
4.97319
4.89905
4.99905
5.0059
5.04712
5.04712
5.08817
5.04712
5.03728
5.08666
5.03849
5.09905
5.08817
5.0059
5.07319
5.08817
5.08817
5.0059
5.08817
5.0059
4.3059
5.03849
5.03849
5.04712
5.0059
5.04712
5.03849
5.0059
5.07319
5.09905
5.07091
5.09905
5.03849
5.03849
4.3059
5.09905
5.0059
5.0059
5.04712
5.07319
5.04712
5.0059
5.0059
5.0059
5.07319
5.0059
5.09905
4.72659
4.82659

SCALARS status double
LOOKUP_TABLE default
1
1
1
1
1
1
1
1
1
1
1
1
1
1
1
1
1
1
1
1
1
1
1
1
1
1
1
1
1
1
1
1
1
1
1
1
2
1
1
1
1
1
1
1
1
1
1
1
1
1
1
1
1
1
1
1
1
1
1
1
1
1
1
1
1
1
1
1
1
1
1

SCALARS concentration double
LOOKUP_TABLE default
100
100
100
100
100
100
100
100
100
100
100
100
100
100
100
100
100
100
100
100
100
100
100
100
100
100
100
100
100
100
100
100
100
100
100
100
100
100
100
100
100
100
100
100
100
100
100
100
100
100
100
100
100
100
100
100
100
100
100
100
100
100
100
100
100
100
100
100
100
100
100

SCALARS fibres double
LOOKUP_TABLE default
0
0
0
0
0
0
0
0
0
0
0
0
0
0
0
0
0
0
0
0
0
0
0
0
0
0
0
0
0
0
0
0
0
0
0
0
0
0
0
0
0
0
0
0
0
0
0
0
0
0
0
0
0
0
0
0
0
0
0
0
0
0
0
0
0
0
0
0
0
0
0

SCALARS phenot double
LOOKUP_TABLE default
7
7
7
7
7
7
7
7
7
7
7
7
7
7
7
7
7
7
7
7
7
7
7
7
7
7
7
7
7
7
7
7
7
7
7
7
7
7
7
7
7
7
7
7
7
7
7
7
7
7
7
7
7
7
7
7
7
7
7
7
7
7
7
7
7
7
7
7
7
7
7

SCALARS cont_pheno double
LOOKUP_TABLE default
0.5
0.5
0.5
0.5
0.5
0.5
0.5
0.5
0.5
0.5
0.5
0.5
0.5
0.5
0.5
0.5
0.5
0.5
0.5
0.5
0.5
0.5
0.5
0.5
0.5
0.5
0.5
0.5
0.5
0.5
0.5
0.5
0.5
0.5
0.5
0.5
0.45
0.5
0.55
0.5
0.55
0.5
0.5
0.5
0.5
0.5
0.5
0.5
0.5
0.5
0.5
0.5
0.5
0.5
0.5
0.5
0.5
0.5
0.5
0.5
0.5
0.5
0.5
0.5
0.5
0.5
0.5
0.5
0.5
0.5
0.5

SCALARS name double
LOOKUP_TABLE default
3
54
50
11
26
1
62
39
2
55
27
45
61
8
31
53
68
23
13
47
9
44
66
19
67
49
41
29
56
60
51
43
37
15
6
59
17
30
36
24
4
22
70
28
5
14
64
18
20
65
25
57
0
12
35
7
21
58
10
32
33
40
38
48
34
42
63
52
16
46
69

SCALARS interaction_phenotype double
LOOKUP_TABLE default
0
0
0
0
0
0
0
0
0
0
0
0
0
0
0
0
0
0
0
0
0
0
0
0
0
0
0
0
0
0
0
0
0
0
0
0
0
0
0
0
0
0
0
0
0
0
0
0
0
0
0
0
0
0
0
0
0
0
0
0
0
0
0
0
0
0
0
0
0
0
0

SCALARS vessel_interaction double
LOOKUP_TABLE default
0
0
0
0
0
0
0
0
0
0
0
0
0
0
0
0
0
0
0
0
0
0
0
0
0
0
0
0
0
0
0
0
0
0
0
0
0
0
0
0
0
0
0
0
0
0
0
0
0
0
0
0
0
0
0
0
0
0
0
0
0
0
0
0
0
0
0
0
0
0
0

SCALARS is_follower double
LOOKUP_TABLE default
1
1
1
1
1
1
1
1
1
1
1
1
1
1
1
1
1
1
1
1
1
1
1
1
1
1
1
1
1
1
1
1
1
1
1
1
1
1
1
1
1
1
1
1
1
1
1
1
1
1
1
1
1
1
1
1
1
1
1
1
1
1
1
1
1
1
1
1
1
1
1

SCALARS polarised double
LOOKUP_TABLE default
0
0
0
0
0
0
0
0
0
0
0
0
0
0
0
0
0
0
0
0
0
0
0
0
0
0
0
0
0
0
0
0
0
0
0
0
0
0
0
0
0
0
0
0
0
0
0
0
0
0
0
0
0
0
0
0
0
0
0
0
0
0
0
0
0
0
0
0
0
0
0

