# vtk DataFile Version 2.0
Unstructured grid legacy vtk file with point scalar data
ASCII

DATASET UNSTRUCTURED_GRID
POINTS 24 double
337.974 355.178 388.643
343.208 355.376 392.676
339.987 351.168 396.916
343.309 346.983 403.667
338.787 360.155 381.977
341.167 360.183 394.534
336.123 365.248 404.442
343.464 364.329 400.128
344.048 358.385 406.841
355.305 352.776 392.821
354.726 353.646 404.299
348.712 351.281 398.35
351.663 359.355 389.769
348.136 358.72 400.605
351.385 359.715 396.201
351.902 358.957 410.313
351.588 367.201 399.308
358.891 342.286 403.506
359.221 349.019 399.009
363.117 355.672 401.699
358.088 359.408 396.625
356.924 363.087 401.888
360.451 357.056 409.202
357.476 364.205 407.845

POINT_DATA 24
SCALARS radius double
LOOKUP_TABLE default
5.02478
4.19905
5.00303
5.0685
5.07091
4.19905
5.08817
5.03849
5.09905
5.08817
5.07091
5.07091
5.02478
4.3059
4.3059
5.08817
5.04712
5.03849
5.03849
5.03849
5.08817
4.49905
5.03849
4.59905

SCALARS status double
LOOKUP_TABLE default
1
1
1
1
1
1
1
1
1
1
1
1
1
1
1
1
1
1
1
1
1
1
1
1

SCALARS concentration double
LOOKUP_TABLE default
100
100
100
100
100
100
100
100
100
100
100
100
100
100
100
100
100
100
100
100
100
100
100
100

SCALARS fibres double
LOOKUP_TABLE default
0
0
0
0
0
0
0
0
0
0
0
0
0
0
0
0
0
0
0
0
0
0
0
0

SCALARS phenot double
LOOKUP_TABLE default
7
7
7
7
7
7
7
7
7
7
7
7
7
7
7
7
7
7
7
7
7
7
7
7

SCALARS cont_pheno double
LOOKUP_TABLE default
0.5
0.5
0.5
0.5
0.5
0.5
0.5
0.5
0.5
0.5
0.5
0.5
0.5
0.5
0.5
0.5
0.5
0.5
0.5
0.5
0.5
0.5
0.5
0.5

SCALARS name double
LOOKUP_TABLE default
3
23
2
1
8
13
11
19
9
15
0
6
4
17
22
5
14
20
18
16
7
21
12
10

SCALARS interaction_phenotype double
LOOKUP_TABLE default
0
0
0
0
0
0
0
0
0
0
0
0
0
0
0
0
0
0
0
0
0
0
0
0

SCALARS vessel_interaction double
LOOKUP_TABLE default
0
0
0
0
0
0
0
0
0
0
0
0
0
0
0
0
0
0
0
0
0
0
0
0

SCALARS is_follower double
LOOKUP_TABLE default
1
1
1
1
1
1
1
1
1
1
1
1
1
1
1
1
1
1
1
1
1
1
1
1

SCALARS polarised double
LOOKUP_TABLE default
0
0
0
0
0
0
0
0
0
0
0
0
0
0
0
0
0
0
0
0
0
0
0
0

