# vtk DataFile Version 2.0
Unstructured grid legacy vtk file with point scalar data
ASCII

DATASET UNSTRUCTURED_GRID
POINTS 3 double
344.966 346.554 402.668
344.604 352.81 396.79
350.022 354.427 403.002

POINT_DATA 3
SCALARS radius double
LOOKUP_TABLE default
5.0685
5.0435
5.0435

SCALARS status double
LOOKUP_TABLE default
1
1
1

SCALARS concentration double
LOOKUP_TABLE default
100
100
100

SCALARS fibres double
LOOKUP_TABLE default
0
0
0

SCALARS phenot double
LOOKUP_TABLE default
7
7
7

SCALARS cont_pheno double
LOOKUP_TABLE default
0.5
0.5
0.5

SCALARS name double
LOOKUP_TABLE default
1
2
0

SCALARS interaction_phenotype double
LOOKUP_TABLE default
0
0
0

SCALARS vessel_interaction double
LOOKUP_TABLE default
0
0
0

SCALARS is_follower double
LOOKUP_TABLE default
1
1
1

SCALARS polarised double
LOOKUP_TABLE default
0
0
0

