# vtk DataFile Version 2.0
Unstructured grid legacy vtk file with point scalar data
ASCII

DATASET UNSTRUCTURED_GRID
POINTS 17 double
339.922 351.575 397.377
344.804 347.91 403.416
338.351 358.316 381.672
340.116 357.222 389.529
338.248 363.434 401.807
343.196 359.446 396.546
344.795 358.689 405.592
353.95 352.016 404.518
348.329 354 398.941
352.241 357.951 391.527
350.406 362.36 400.288
351.867 358.191 410.275
355.706 351.784 396.237
363.067 355.523 401.566
358.092 360.175 397.282
359.97 356.134 408.696
357.285 363.384 405.5

POINT_DATA 17
SCALARS radius double
LOOKUP_TABLE default
5.00303
5.0685
5.07091
5.02478
5.08817
5.08817
5.09905
5.07091
5.07091
5.02478
5.09905
5.08817
5.02478
4.93849
5.08817
5.03849
5.03849

SCALARS status double
LOOKUP_TABLE default
1
1
1
1
1
1
1
1
1
1
1
1
1
1
1
1
1

SCALARS concentration double
LOOKUP_TABLE default
100
100
100
100
100
100
100
100
100
100
100
100
100
100
100
100
100

SCALARS fibres double
LOOKUP_TABLE default
0
0
0
0
0
0
0
0
0
0
0
0
0
0
0
0
0

SCALARS phenot double
LOOKUP_TABLE default
7
7
7
7
7
7
7
7
7
7
7
7
7
7
7
7
7

SCALARS cont_pheno double
LOOKUP_TABLE default
0.5
0.5
0.5
0.5
0.5
0.5
0.5
0.5
0.5
0.5
0.5
0.5
0.5
0.5
0.5
0.5
0.5

SCALARS name double
LOOKUP_TABLE default
2
1
8
3
11
13
9
0
6
4
14
5
15
16
7
12
10

SCALARS interaction_phenotype double
LOOKUP_TABLE default
0
0
0
0
0
0
0
0
0
0
0
0
0
0
0
0
0

SCALARS vessel_interaction double
LOOKUP_TABLE default
0
0
0
0
0
0
0
0
0
0
0
0
0
0
0
0
0

SCALARS is_follower double
LOOKUP_TABLE default
1
1
1
1
1
1
1
1
1
1
1
1
1
1
1
1
1

SCALARS polarised double
LOOKUP_TABLE default
0
0
0
0
0
0
0
0
0
0
0
0
0
0
0
0
0

