# vtk DataFile Version 2.0
Unstructured grid legacy vtk file with point scalar data
ASCII

DATASET UNSTRUCTURED_GRID
POINTS 29 double
335.224 365.441 402.588
335.372 367.412 410.863
345.612 344.293 407.91
336.073 354.276 388.619
338.941 351.829 396.123
342.056 348.168 402.048
338.903 359.705 382.153
344.254 355.681 387.695
340.039 360.22 394.475
343.347 364.701 400.525
342.756 359.356 408.774
354.463 353.345 393.136
346.704 355.166 395.125
350.007 349.396 400.199
351.992 359.782 386.677
348.494 358.123 402.406
351.589 361.169 395.326
350.685 359.198 411.985
353.559 360.152 406.727
350.989 368.559 399.423
358.705 342.345 405.22
355.779 353.589 404.14
357.968 347.589 398.918
363.615 353.077 396.021
359.967 360.032 393.891
363.785 356.942 403.408
356.906 362.238 401.611
359.793 357.077 410.527
357.934 365.352 410.292

POINT_DATA 29
SCALARS radius double
LOOKUP_TABLE default
5.03849
5.03849
5.02287
5.02478
5.00303
5.02287
5.07091
5.04712
5.09905
5.03849
5.09905
5.08817
5.04712
5.07091
5.02478
5.0059
5.0059
4.43849
4.53849
5.04712
5.03849
5.07091
5.03849
5.09905
5.08817
5.09905
5.09905
5.03849
5.09905

SCALARS status double
LOOKUP_TABLE default
1
1
1
1
1
1
1
1
1
1
1
1
1
1
1
1
1
1
1
1
1
1
1
1
1
1
1
1
1

SCALARS concentration double
LOOKUP_TABLE default
100
100
100
100
100
100
100
100
100
100
100
100
100
100
100
100
100
100
100
100
100
100
100
100
100
100
100
100
100

SCALARS fibres double
LOOKUP_TABLE default
0
0
0
0
0
0
0
0
0
0
0
0
0
0
0
0
0
0
0
0
0
0
0
0
0
0
0
0
0

SCALARS phenot double
LOOKUP_TABLE default
7
7
7
7
7
7
7
7
7
7
7
7
7
7
7
7
7
7
7
7
7
7
7
7
7
7
7
7
7

SCALARS cont_pheno double
LOOKUP_TABLE default
0.5
0.5
0.5
0.5
0.5
0.5
0.5
0.5
0.5
0.5
0.5
0.5
0.5
0.5
0.5
0.5
0.5
0.5
0.5
0.5
0.5
0.5
0.5
0.5
0.5
0.5
0.5
0.5
0.5

SCALARS name double
LOOKUP_TABLE default
11
26
27
3
2
1
8
23
13
19
9
15
24
6
4
17
22
5
28
14
20
0
18
25
7
16
21
12
10

SCALARS interaction_phenotype double
LOOKUP_TABLE default
0
0
0
0
0
0
0
0
0
0
0
0
0
0
0
0
0
0
0
0
0
0
0
0
0
0
0
0
0

SCALARS vessel_interaction double
LOOKUP_TABLE default
0
0
0
0
0
0
0
0
0
0
0
0
0
0
0
0
0
0
0
0
0
0
0
0
0
0
0
0
0

SCALARS is_follower double
LOOKUP_TABLE default
1
1
1
1
1
1
1
1
1
1
1
1
1
1
1
1
1
1
1
1
1
1
1
1
1
1
1
1
1

SCALARS polarised double
LOOKUP_TABLE default
0
0
0
0
0
0
0
0
0
0
0
0
0
0
0
0
0
0
0
0
0
0
0
0
0
0
0
0
0

