# vtk DataFile Version 2.0
Unstructured grid legacy vtk file with point scalar data
ASCII

DATASET UNSTRUCTURED_GRID
POINTS 19 double
340.55 351.196 396.88
344.662 347.603 403.736
338.47 359.169 381.894
339.826 356.285 389.612
338.142 363.545 402.715
342.168 359.856 396.111
344.584 358.531 405.522
355.182 352.279 394.812
354.439 352.502 404.749
348.747 352.623 398.857
351.796 358.215 392.14
351.582 364.227 400.509
348.358 359.302 399.05
352.088 358.457 410.646
362.616 354.487 401.295
358.549 349.168 399.295
357.946 360.161 397.546
360.105 356.241 408.891
356.83 363.494 405.727

POINT_DATA 19
SCALARS radius double
LOOKUP_TABLE default
5.00303
5.0685
5.07091
5.02478
5.08817
5.08817
5.09905
4.28817
5.07091
5.07091
5.02478
4.64712
4.64712
5.08817
5.03849
4.38817
5.08817
5.03849
5.03849

SCALARS status double
LOOKUP_TABLE default
1
1
1
1
1
1
1
1
1
1
1
1
1
1
1
1
1
1
1

SCALARS concentration double
LOOKUP_TABLE default
100
100
100
100
100
100
100
100
100
100
100
100
100
100
100
100
100
100
100

SCALARS fibres double
LOOKUP_TABLE default
0
0
0
0
0
0
0
0
0
0
0
0
0
0
0
0
0
0
0

SCALARS phenot double
LOOKUP_TABLE default
7
7
7
7
7
7
7
7
7
7
7
7
7
7
7
7
7
7
7

SCALARS cont_pheno double
LOOKUP_TABLE default
0.5
0.5
0.5
0.5
0.5
0.5
0.5
0.5
0.5
0.5
0.5
0.5
0.5
0.5
0.5
0.5
0.5
0.5
0.5

SCALARS name double
LOOKUP_TABLE default
2
1
8
3
11
13
9
15
0
6
4
14
17
5
16
18
7
12
10

SCALARS interaction_phenotype double
LOOKUP_TABLE default
0
0
0
0
0
0
0
0
0
0
0
0
0
0
0
0
0
0
0

SCALARS vessel_interaction double
LOOKUP_TABLE default
0
0
0
0
0
0
0
0
0
0
0
0
0
0
0
0
0
0
0

SCALARS is_follower double
LOOKUP_TABLE default
1
1
1
1
1
1
1
1
1
1
1
1
1
1
1
1
1
1
1

SCALARS polarised double
LOOKUP_TABLE default
0
0
0
0
0
0
0
0
0
0
0
0
0
0
0
0
0
0
0

