# vtk DataFile Version 2.0
Unstructured grid legacy vtk file with point scalar data
ASCII

DATASET UNSTRUCTURED_GRID
POINTS 66 double
334.262 355.34 393.69
335.296 354.398 385.473
331.005 357.921 379.372
333.459 362.887 400.941
331.106 370.738 413.857
339.572 339.672 400.489
340.137 341.958 405.371
342.747 344.95 410.355
340.544 350.185 390.42
340.81 354.603 398.738
337.596 347.984 403.2
338.162 352.24 408.799
338.86 354.151 414.676
336.583 362.737 384.085
339.333 359.006 376.466
344.212 364.401 380.924
342.958 357.833 385.975
341.068 361.224 393.87
345.448 361.404 400.952
345.454 357.966 408.189
342.313 360.338 416.121
340.387 367.994 399.49
344.375 366.169 410.06
336.28 368.312 407.457
339.117 367.894 415.884
354.874 339.521 400.288
350.814 343.104 407.571
349.174 340.409 415.333
347.292 355.354 392.198
352.791 353.972 386.315
350.939 346.216 391.539
355.186 352.545 394.167
352.517 346.6 400.368
347.258 350.503 397.753
346.216 350.495 405.581
353.152 357.3 378.388
351.038 362.169 385.632
349.405 363.144 393.793
351.559 356.018 401.195
355.232 363.255 400.221
353.434 360.233 408.327
350.629 357.637 415.986
349.157 369.038 400.067
358.195 343.307 394.83
358.869 340.131 406.651
364.921 353.478 391.165
364.464 352.937 396.096
360.579 348.279 399.922
358.417 354.302 404.879
359.867 355.011 412.602
365.381 360.515 393.178
356.725 360.464 390.58
359.446 357.259 397.797
360.834 362.636 408.019
361.165 361.772 416.688
358.953 358.746 424.362
355.908 369.336 405.657
365.233 368.344 412.834
357.717 370.029 416.893
355.946 367.346 420.742
367.862 352.81 387.528
367.243 350.836 403.559
369.006 349.663 395.314
366.129 359.087 402.037
372.596 357.387 415.378
365.835 356.184 420.736

POINT_DATA 66
SCALARS radius double
LOOKUP_TABLE default
5.08817
5.08817
5.08817
5.03849
5.04712
4.13728
4.23728
5.03728
5.07091
5.07091
5.08666
4.43849
4.43849
5.08817
5.08817
5.08817
5.04712
5.09905
5.07319
5.09905
5.0059
5.03849
5.0059
5.04712
5.04712
4.74712
5.03728
5.08666
5.0059
5.03849
5.08817
5.09905
5.08817
5.0059
5.08817
5.08817
5.08817
5.0059
5.07319
5.04712
5.03849
5.03849
5.04712
4.64712
5.03849
4.0059
4.17319
5.09905
5.07091
5.09905
5.03849
5.03849
5.09905
5.0059
5.0059
5.04712
5.04712
5.0059
4.0059
4.1059
4.1059
5.0059
4.17319
5.09905
5.07319
5.07319

SCALARS status double
LOOKUP_TABLE default
1
1
1
1
1
1
1
1
1
1
1
1
1
1
1
1
1
1
1
1
1
1
1
1
1
1
1
1
1
1
1
1
1
1
1
1
1
1
1
1
1
1
1
1
1
1
1
1
1
1
1
1
1
1
1
1
1
1
1
1
1
1
1
1
1
1

SCALARS concentration double
LOOKUP_TABLE default
100
100
100
100
100
100
100
100
100
100
100
100
100
100
100
100
100
100
100
100
100
100
100
100
100
100
100
100
100
100
100
100
100
100
100
100
100
100
100
100
100
100
100
100
100
100
100
100
100
100
100
100
100
100
100
100
100
100
100
100
100
100
100
100
100
100

SCALARS fibres double
LOOKUP_TABLE default
0
0
0
0
0
0
0
0
0
0
0
0
0
0
0
0
0
0
0
0
0
0
0
0
0
0
0
0
0
0
0
0
0
0
0
0
0
0
0
0
0
0
0
0
0
0
0
0
0
0
0
0
0
0
0
0
0
0
0
0
0
0
0
0
0
0

SCALARS phenot double
LOOKUP_TABLE default
7
7
7
7
7
7
7
7
7
7
7
7
7
7
7
7
7
7
7
7
7
7
7
7
7
7
7
7
7
7
7
7
7
7
7
7
7
7
7
7
7
7
7
7
7
7
7
7
7
7
7
7
7
7
7
7
7
7
7
7
7
7
7
7
7
7

SCALARS cont_pheno double
LOOKUP_TABLE default
0.5
0.5
0.5
0.5
0.5
0.5
0.5
0.5
0.5
0.5
0.5
0.5
0.5
0.5
0.5
0.5
0.5
0.5
0.5
0.5
0.5
0.5
0.5
0.5
0.5
0.5
0.5
0.5
0.5
0.5
0.5
0.5
0.5
0.5
0.5
0.55
0.55
0.5
0.5
0.5
0.5
0.5
0.5
0.5
0.5
0.5
0.5
0.5
0.5
0.5
0.5
0.5
0.5
0.5
0.5
0.5
0.5
0.5
0.5
0.5
0.5
0.5
0.5
0.5
0.5
0.5

SCALARS name double
LOOKUP_TABLE default
50
3
54
11
26
1
62
27
39
2
55
45
61
8
31
53
23
13
47
9
44
19
49
41
29
60
51
43
24
37
56
15
6
59
30
36
4
22
17
21
28
5
14
18
20
65
25
57
0
12
7
35
58
10
32
33
38
48
34
64
42
52
63
16
46
40

SCALARS interaction_phenotype double
LOOKUP_TABLE default
0
0
0
0
0
0
0
0
0
0
0
0
0
0
0
0
0
0
0
0
0
0
0
0
0
0
0
0
0
0
0
0
0
0
0
0
0
0
0
0
0
0
0
0
0
0
0
0
0
0
0
0
0
0
0
0
0
0
0
0
0
0
0
0
0
0

SCALARS vessel_interaction double
LOOKUP_TABLE default
0
0
0
0
0
0
0
0
0
0
0
0
0
0
0
0
0
0
0
0
0
0
0
0
0
0
0
0
0
0
0
0
0
0
0
0
0
0
0
0
0
0
0
0
0
0
0
0
0
0
0
0
0
0
0
0
0
0
0
0
0
0
0
0
0
0

SCALARS is_follower double
LOOKUP_TABLE default
1
1
1
1
1
1
1
1
1
1
1
1
1
1
1
1
1
1
1
1
1
1
1
1
1
1
1
1
1
1
1
1
1
1
1
1
1
1
1
1
1
1
1
1
1
1
1
1
1
1
1
1
1
1
1
1
1
1
1
1
1
1
1
1
1
1

SCALARS polarised double
LOOKUP_TABLE default
0
0
0
0
0
0
0
0
0
0
0
0
0
0
0
0
0
0
0
0
0
0
0
0
0
0
0
0
0
0
0
0
0
0
0
0
0
0
0
0
0
0
0
0
0
0
0
0
0
0
0
0
0
0
0
0
0
0
0
0
0
0
0
0
0
0

