# vtk DataFile Version 2.0
Unstructured grid legacy vtk file with point scalar data
ASCII

DATASET UNSTRUCTURED_GRID
POINTS 43 double
335.773 355.544 388.354
334.502 364.289 402.071
332.772 370.437 412.144
339.442 345.658 402.591
345.227 343.882 409.439
340.999 349.152 390.254
339.497 352.261 397.604
345.656 351.28 405.019
339.078 361.83 383.885
337.162 358.206 376.25
344.803 356.093 387.075
340.725 359.674 394.135
342.852 365.105 400.434
343.619 359.41 407.897
340.404 364.899 413.341
336.313 367.362 407.748
347.368 353.858 394.24
353.25 353.715 387.9
350.708 348.337 399.324
353.201 356.794 380.397
350.699 362.114 386.401
348.668 362.909 394.654
348.573 358.263 401.174
352.518 360.178 408.035
348.643 358.646 415.584
350.72 368.683 399.672
357.81 341.314 405.018
356.258 352.953 394.893
356.1 354.318 402.998
359.238 346.756 399.019
363.936 353.056 396.451
359.586 354.883 410.266
364.073 360.564 393.075
356.529 360.56 391.841
363.458 358.085 402.996
356.829 361.782 399.27
360.379 363.588 409.735
361.112 360.339 415.899
359.913 358.255 423.007
356.454 367.399 404.823
358.779 368.435 416.691
366.398 353.047 391.049
367.269 357.005 418.687

POINT_DATA 43
SCALARS radius double
LOOKUP_TABLE default
5.02478
5.03849
4.44712
5.02287
5.02287
5.07091
5.07091
5.02478
5.02478
5.02478
5.04712
5.09905
5.03849
5.09905
5.09905
4.54712
5.04712
5.03849
5.02478
5.08817
5.08817
5.0059
5.0059
5.03849
5.03849
5.04712
5.03849
5.03849
5.07091
5.03849
4.24712
5.09905
5.03849
5.03849
5.09905
5.04712
5.04712
4.8059
5.04712
5.04712
5.04712
4.24712
4.9059

SCALARS status double
LOOKUP_TABLE default
1
1
1
1
1
1
1
1
1
1
1
1
1
1
1
1
1
1
1
1
1
1
1
1
1
1
1
1
1
1
1
1
1
1
1
1
1
1
1
1
1
1
1

SCALARS concentration double
LOOKUP_TABLE default
100
100
100
100
100
100
100
100
100
100
100
100
100
100
100
100
100
100
100
100
100
100
100
100
100
100
100
100
100
100
100
100
100
100
100
100
100
100
100
100
100
100
100

SCALARS fibres double
LOOKUP_TABLE default
0
0
0
0
0
0
0
0
0
0
0
0
0
0
0
0
0
0
0
0
0
0
0
0
0
0
0
0
0
0
0
0
0
0
0
0
0
0
0
0
0
0
0

SCALARS phenot double
LOOKUP_TABLE default
7
7
7
7
7
7
7
7
7
7
7
7
7
7
7
7
7
7
7
7
7
7
7
7
7
7
7
7
7
7
7
7
7
7
7
7
7
7
7
7
7
7
7

SCALARS cont_pheno double
LOOKUP_TABLE default
0.5
0.5
0.5
0.5
0.5
0.5
0.5
0.5
0.5
0.5
0.5
0.5
0.5
0.5
0.5
0.5
0.5
0.5
0.5
0.55
0.55
0.5
0.5
0.5
0.5
0.5
0.5
0.5
0.5
0.5
0.5
0.5
0.5
0.5
0.5
0.5
0.5
0.5
0.5
0.5
0.5
0.5
0.5

SCALARS name double
LOOKUP_TABLE default
3
11
26
1
27
39
2
30
8
31
23
13
19
9
29
41
24
37
6
36
4
22
17
28
5
14
20
15
0
18
25
12
7
35
16
21
10
32
33
38
34
42
40

SCALARS interaction_phenotype double
LOOKUP_TABLE default
0
0
0
0
0
0
0
0
0
0
0
0
0
0
0
0
0
0
0
0
0
0
0
0
0
0
0
0
0
0
0
0
0
0
0
0
0
0
0
0
0
0
0

SCALARS vessel_interaction double
LOOKUP_TABLE default
0
0
0
0
0
0
0
0
0
0
0
0
0
0
0
0
0
0
0
0
0
0
0
0
0
0
0
0
0
0
0
0
0
0
0
0
0
0
0
0
0
0
0

SCALARS is_follower double
LOOKUP_TABLE default
1
1
1
1
1
1
1
1
1
1
1
1
1
1
1
1
1
1
1
1
1
1
1
1
1
1
1
1
1
1
1
1
1
1
1
1
1
1
1
1
1
1
1

SCALARS polarised double
LOOKUP_TABLE default
0
0
0
0
0
0
0
0
0
0
0
0
0
0
0
0
0
0
0
0
0
0
0
0
0
0
0
0
0
0
0
0
0
0
0
0
0
0
0
0
0
0
0

