# vtk DataFile Version 2.0
Unstructured grid legacy vtk file with point scalar data
ASCII

DATASET UNSTRUCTURED_GRID
POINTS 10 double
340.925 352.791 397.608
340.655 358.527 392.374
340.246 358.279 385.557
346.271 348.112 402.455
353.99 351.772 404.933
354.294 356.759 393.921
348.062 356.148 399.683
350.442 359.318 403.916
351.173 359.017 409.081
356.875 359.518 401.855

POINT_DATA 10
SCALARS radius double
LOOKUP_TABLE default
5.00303
4.37091
4.47091
5.0685
5.07091
5.07091
5.07091
4.08817
4.18817
5.02478

SCALARS status double
LOOKUP_TABLE default
1
1
1
1
1
1
1
1
1
1

SCALARS concentration double
LOOKUP_TABLE default
100
100
100
100
100
100
100
100
100
100

SCALARS fibres double
LOOKUP_TABLE default
0
0
0
0
0
0
0
0
0
0

SCALARS phenot double
LOOKUP_TABLE default
7
7
7
7
7
7
7
7
7
7

SCALARS cont_pheno double
LOOKUP_TABLE default
0.5
0.5
0.5
0.5
0.5
0.5
0.5
0.5
0.5
0.5

SCALARS name double
LOOKUP_TABLE default
2
3
8
1
0
4
6
9
5
7

SCALARS interaction_phenotype double
LOOKUP_TABLE default
0
0
0
0
0
0
0
0
0
0

SCALARS vessel_interaction double
LOOKUP_TABLE default
0
0
0
0
0
0
0
0
0
0

SCALARS is_follower double
LOOKUP_TABLE default
1
1
1
1
1
1
1
1
1
1

SCALARS polarised double
LOOKUP_TABLE default
0
0
0
0
0
0
0
0
0
0

