# vtk DataFile Version 2.0
Unstructured grid legacy vtk file with point scalar data
ASCII

DATASET UNSTRUCTURED_GRID
POINTS 3 double
344.751 346.986 401.825
349.796 354.218 401.108
346.222 352.835 398.067

POINT_DATA 3
SCALARS radius double
LOOKUP_TABLE default
5.0685
4.0435
4.0435

SCALARS status double
LOOKUP_TABLE default
1
1
1

SCALARS concentration double
LOOKUP_TABLE default
100
100
100

SCALARS fibres double
LOOKUP_TABLE default
0
0
0

SCALARS phenot double
LOOKUP_TABLE default
7
7
7

SCALARS cont_pheno double
LOOKUP_TABLE default
0.5
0.5
0.5

SCALARS name double
LOOKUP_TABLE default
1
0
2

SCALARS interaction_phenotype double
LOOKUP_TABLE default
0
0
0

SCALARS vessel_interaction double
LOOKUP_TABLE default
0
0
0

SCALARS is_follower double
LOOKUP_TABLE default
1
1
1

SCALARS polarised double
LOOKUP_TABLE default
0
0
0

