# vtk DataFile Version 2.0
Unstructured grid legacy vtk file with point scalar data
ASCII

DATASET UNSTRUCTURED_GRID
POINTS 8 double
342.253 352.959 397.473
339.585 358.614 391.634
346.137 346.863 402.179
353.571 351.465 404.94
354.243 356.653 394.696
348.604 356.61 400.574
351.426 360.281 406.583
356.639 359.097 401.744

POINT_DATA 8
SCALARS radius double
LOOKUP_TABLE default
5.00303
5.00303
5.0685
5.07091
5.07091
5.07091
4.72478
4.62478

SCALARS status double
LOOKUP_TABLE default
1
1
1
1
1
1
1
1

SCALARS concentration double
LOOKUP_TABLE default
100
100
100
100
100
100
100
100

SCALARS fibres double
LOOKUP_TABLE default
0
0
0
0
0
0
0
0

SCALARS phenot double
LOOKUP_TABLE default
7
7
7
7
7
7
7
7

SCALARS cont_pheno double
LOOKUP_TABLE default
0.5
0.5
0.5
0.5
0.5
0.5
0.5
0.5

SCALARS name double
LOOKUP_TABLE default
2
3
1
0
4
6
5
7

SCALARS interaction_phenotype double
LOOKUP_TABLE default
0
0
0
0
0
0
0
0

SCALARS vessel_interaction double
LOOKUP_TABLE default
0
0
0
0
0
0
0
0

SCALARS is_follower double
LOOKUP_TABLE default
1
1
1
1
1
1
1
1

SCALARS polarised double
LOOKUP_TABLE default
0
0
0
0
0
0
0
0

