# vtk DataFile Version 2.0
Unstructured grid legacy vtk file with point scalar data
ASCII

DATASET UNSTRUCTURED_GRID
POINTS 17 double
339.929 351.617 397.155
344.475 347.805 403.608
338.259 358.688 381.635
339.929 356.943 389.502
338.214 363.159 402.065
343.059 359.597 396.722
344.694 358.806 405.877
354.211 351.9 404.872
348.351 354.127 398.929
352.215 358.25 391.667
350.137 362.003 400.222
352.114 358.267 410.345
356.017 351.876 395.693
363.28 354.796 401.542
358.115 360.028 397.317
360.164 355.959 409.093
357.034 363.546 405.434

POINT_DATA 17
SCALARS radius double
LOOKUP_TABLE default
5.00303
5.0685
5.07091
5.02478
5.08817
5.08817
5.09905
5.07091
5.07091
5.02478
5.09905
5.08817
5.02478
5.03849
5.08817
5.03849
5.03849

SCALARS status double
LOOKUP_TABLE default
1
1
1
1
1
1
1
1
1
1
1
1
1
1
1
1
1

SCALARS concentration double
LOOKUP_TABLE default
100
100
100
100
100
100
100
100
100
100
100
100
100
100
100
100
100

SCALARS fibres double
LOOKUP_TABLE default
0
0
0
0
0
0
0
0
0
0
0
0
0
0
0
0
0

SCALARS phenot double
LOOKUP_TABLE default
7
7
7
7
7
7
7
7
7
7
7
7
7
7
7
7
7

SCALARS cont_pheno double
LOOKUP_TABLE default
0.5
0.5
0.5
0.5
0.5
0.5
0.5
0.5
0.5
0.5
0.5
0.5
0.5
0.5
0.5
0.5
0.5

SCALARS name double
LOOKUP_TABLE default
2
1
8
3
11
13
9
0
6
4
14
5
15
16
7
12
10

SCALARS interaction_phenotype double
LOOKUP_TABLE default
0
0
0
0
0
0
0
0
0
0
0
0
0
0
0
0
0

SCALARS vessel_interaction double
LOOKUP_TABLE default
0
0
0
0
0
0
0
0
0
0
0
0
0
0
0
0
0

SCALARS is_follower double
LOOKUP_TABLE default
1
1
1
1
1
1
1
1
1
1
1
1
1
1
1
1
1

SCALARS polarised double
LOOKUP_TABLE default
0
0
0
0
0
0
0
0
0
0
0
0
0
0
0
0
0

