# vtk DataFile Version 2.0
Unstructured grid legacy vtk file with point scalar data
ASCII

DATASET UNSTRUCTURED_GRID
POINTS 24 double
337.844 355.158 388.618
343.719 355.266 392.726
339.666 351.081 397.046
343.491 346.957 403.677
338.697 360.323 381.865
341.146 360.43 394.607
336.355 365.39 404.417
343.329 364.162 400.331
343.897 358.493 406.766
355.199 352.695 392.815
354.575 353.708 404.232
348.936 351.258 398.228
351.785 359.347 389.511
347.96 358.916 400.763
351.341 359.78 396.277
352.015 358.997 410.567
351.547 367.296 399.256
358.897 342.177 403.512
359.297 348.835 398.976
363.173 355.665 401.891
358.132 359.357 396.367
356.837 363.099 401.828
360.501 357.188 409.526
357.591 364.439 408.094

POINT_DATA 24
SCALARS radius double
LOOKUP_TABLE default
5.02478
4.29905
5.00303
5.0685
5.07091
4.29905
5.08817
5.03849
5.09905
5.08817
5.07091
5.07091
5.02478
4.4059
4.4059
5.08817
5.04712
5.03849
5.03849
5.03849
5.08817
4.59905
5.03849
4.69905

SCALARS status double
LOOKUP_TABLE default
1
1
1
1
1
1
1
1
1
1
1
1
1
1
1
1
1
1
1
1
1
1
1
1

SCALARS concentration double
LOOKUP_TABLE default
100
100
100
100
100
100
100
100
100
100
100
100
100
100
100
100
100
100
100
100
100
100
100
100

SCALARS fibres double
LOOKUP_TABLE default
0
0
0
0
0
0
0
0
0
0
0
0
0
0
0
0
0
0
0
0
0
0
0
0

SCALARS phenot double
LOOKUP_TABLE default
7
7
7
7
7
7
7
7
7
7
7
7
7
7
7
7
7
7
7
7
7
7
7
7

SCALARS cont_pheno double
LOOKUP_TABLE default
0.5
0.5
0.5
0.5
0.5
0.5
0.5
0.5
0.5
0.5
0.5
0.5
0.5
0.5
0.5
0.5
0.5
0.5
0.5
0.5
0.5
0.5
0.5
0.5

SCALARS name double
LOOKUP_TABLE default
3
23
2
1
8
13
11
19
9
15
0
6
4
17
22
5
14
20
18
16
7
21
12
10

SCALARS interaction_phenotype double
LOOKUP_TABLE default
0
0
0
0
0
0
0
0
0
0
0
0
0
0
0
0
0
0
0
0
0
0
0
0

SCALARS vessel_interaction double
LOOKUP_TABLE default
0
0
0
0
0
0
0
0
0
0
0
0
0
0
0
0
0
0
0
0
0
0
0
0

SCALARS is_follower double
LOOKUP_TABLE default
1
1
1
1
1
1
1
1
1
1
1
1
1
1
1
1
1
1
1
1
1
1
1
1

SCALARS polarised double
LOOKUP_TABLE default
0
0
0
0
0
0
0
0
0
0
0
0
0
0
0
0
0
0
0
0
0
0
0
0

