# vtk DataFile Version 2.0
Unstructured grid legacy vtk file with point scalar data
ASCII

DATASET UNSTRUCTURED_GRID
POINTS 8 double
341.231 352.895 397.78
340.414 358.327 390.949
346.713 348.154 402.47
353.96 352.105 404.676
354.034 356.681 394.014
348.275 356.416 400.096
350.526 359.582 407.923
356.795 359.555 402.025

POINT_DATA 8
SCALARS radius double
LOOKUP_TABLE default
5.00303
5.00303
5.0685
5.07091
5.07091
5.07091
5.02478
5.02478

SCALARS status double
LOOKUP_TABLE default
1
1
1
1
1
1
1
1

SCALARS concentration double
LOOKUP_TABLE default
100
100
100
100
100
100
100
100

SCALARS fibres double
LOOKUP_TABLE default
0
0
0
0
0
0
0
0

SCALARS phenot double
LOOKUP_TABLE default
7
7
7
7
7
7
7
7

SCALARS cont_pheno double
LOOKUP_TABLE default
0.5
0.5
0.5
0.5
0.5
0.5
0.5
0.5

SCALARS name double
LOOKUP_TABLE default
2
3
1
0
4
6
5
7

SCALARS interaction_phenotype double
LOOKUP_TABLE default
0
0
0
0
0
0
0
0

SCALARS vessel_interaction double
LOOKUP_TABLE default
0
0
0
0
0
0
0
0

SCALARS is_follower double
LOOKUP_TABLE default
1
1
1
1
1
1
1
1

SCALARS polarised double
LOOKUP_TABLE default
0
0
0
0
0
0
0
0

