# vtk DataFile Version 2.0
Unstructured grid legacy vtk file with point scalar data
ASCII

DATASET UNSTRUCTURED_GRID
POINTS 3 double
344.788 346.824 401.883
345.32 352.98 397.129
350.345 354.327 402.136

POINT_DATA 3
SCALARS radius double
LOOKUP_TABLE default
5.0685
4.6435
4.6435

SCALARS status double
LOOKUP_TABLE default
1
1
1

SCALARS concentration double
LOOKUP_TABLE default
100
100
100

SCALARS fibres double
LOOKUP_TABLE default
0
0
0

SCALARS phenot double
LOOKUP_TABLE default
7
7
7

SCALARS cont_pheno double
LOOKUP_TABLE default
0.5
0.5
0.5

SCALARS name double
LOOKUP_TABLE default
1
2
0

SCALARS interaction_phenotype double
LOOKUP_TABLE default
0
0
0

SCALARS vessel_interaction double
LOOKUP_TABLE default
0
0
0

SCALARS is_follower double
LOOKUP_TABLE default
1
1
1

SCALARS polarised double
LOOKUP_TABLE default
0
0
0

