# vtk DataFile Version 2.0
Unstructured grid legacy vtk file with point scalar data
ASCII

DATASET UNSTRUCTURED_GRID
POINTS 24 double
337.459 355.132 388.963
344.68 354.711 392.163
339.467 350.87 397.098
343.464 346.874 403.251
338.417 360.445 381.913
340.238 360.523 394.519
335.952 365.373 404.41
343.32 364.509 400.554
343.665 358.42 407.262
355.18 352.668 392.917
354.437 353.634 404.156
348.492 351.188 398.07
351.838 359.633 388.913
348.04 358.37 401.405
351.138 359.864 396.091
351.706 359.103 410.461
351.497 367.393 399.138
358.841 341.828 403.884
359.221 348.806 399.089
363.188 355.791 401.904
358.85 359.401 395.591
357.037 362.62 401.938
360.565 357.066 409.815
358.355 364.843 409.086

POINT_DATA 24
SCALARS radius double
LOOKUP_TABLE default
5.02478
4.69905
5.00303
5.0685
5.07091
4.69905
5.08817
5.03849
5.09905
5.08817
5.07091
5.07091
5.02478
4.8059
4.8059
5.08817
5.04712
5.03849
5.03849
5.03849
5.08817
4.99905
5.03849
5.09905

SCALARS status double
LOOKUP_TABLE default
1
1
1
1
1
1
1
1
1
1
1
1
1
1
1
1
1
1
1
1
1
1
1
1

SCALARS concentration double
LOOKUP_TABLE default
100
100
100
100
100
100
100
100
100
100
100
100
100
100
100
100
100
100
100
100
100
100
100
100

SCALARS fibres double
LOOKUP_TABLE default
0
0
0
0
0
0
0
0
0
0
0
0
0
0
0
0
0
0
0
0
0
0
0
0

SCALARS phenot double
LOOKUP_TABLE default
7
7
7
7
7
7
7
7
7
7
7
7
7
7
7
7
7
7
7
7
7
7
7
7

SCALARS cont_pheno double
LOOKUP_TABLE default
0.5
0.5
0.5
0.5
0.5
0.5
0.5
0.5
0.5
0.5
0.5
0.5
0.5
0.5
0.5
0.5
0.5
0.5
0.5
0.5
0.5
0.5
0.5
0.5

SCALARS name double
LOOKUP_TABLE default
3
23
2
1
8
13
11
19
9
15
0
6
4
17
22
5
14
20
18
16
7
21
12
10

SCALARS interaction_phenotype double
LOOKUP_TABLE default
0
0
0
0
0
0
0
0
0
0
0
0
0
0
0
0
0
0
0
0
0
0
0
0

SCALARS vessel_interaction double
LOOKUP_TABLE default
0
0
0
0
0
0
0
0
0
0
0
0
0
0
0
0
0
0
0
0
0
0
0
0

SCALARS is_follower double
LOOKUP_TABLE default
1
1
1
1
1
1
1
1
1
1
1
1
1
1
1
1
1
1
1
1
1
1
1
1

SCALARS polarised double
LOOKUP_TABLE default
0
0
0
0
0
0
0
0
0
0
0
0
0
0
0
0
0
0
0
0
0
0
0
0

