# vtk DataFile Version 2.0
Unstructured grid legacy vtk file with point scalar data
ASCII

DATASET UNSTRUCTURED_GRID
POINTS 24 double
336.962 355.095 388.645
345.044 354.778 391.671
339.646 351.263 396.69
343.655 346.958 403.289
338.934 360.357 381.787
339.717 360.322 394.633
343.495 364.5 400.649
343.157 358.414 407.633
335.994 365.555 404.529
354.618 352.466 392.816
354.759 353.807 404.041
348.785 351.065 398.235
351.532 359.247 388.407
348.144 357.983 402.494
350.783 359.961 395.907
351.838 359.053 410.101
351.348 367.817 399
358.556 341.697 404.201
359.226 348.404 399.157
362.923 355.525 401.604
359.392 359.179 394.862
356.947 362.302 402.085
360.221 357.237 409.646
358.083 365.494 409.586

POINT_DATA 24
SCALARS radius double
LOOKUP_TABLE default
5.02478
5.09905
5.00303
5.0685
5.07091
5.09905
5.03849
5.09905
5.08817
5.08817
5.07091
5.07091
5.02478
5.0059
5.0059
5.08817
5.04712
5.03849
5.03849
5.03849
5.08817
5.09905
5.03849
5.09905

SCALARS status double
LOOKUP_TABLE default
1
1
1
1
1
1
1
1
1
1
1
1
1
1
1
1
1
1
1
1
1
1
1
1

SCALARS concentration double
LOOKUP_TABLE default
100
100
100
100
100
100
100
100
100
100
100
100
100
100
100
100
100
100
100
100
100
100
100
100

SCALARS fibres double
LOOKUP_TABLE default
0
0
0
0
0
0
0
0
0
0
0
0
0
0
0
0
0
0
0
0
0
0
0
0

SCALARS phenot double
LOOKUP_TABLE default
7
7
7
7
7
7
7
7
7
7
7
7
7
7
7
7
7
7
7
7
7
7
7
7

SCALARS cont_pheno double
LOOKUP_TABLE default
0.5
0.5
0.5
0.5
0.5
0.5
0.5
0.5
0.5
0.5
0.5
0.5
0.5
0.5
0.5
0.5
0.5
0.5
0.5
0.5
0.5
0.5
0.5
0.5

SCALARS name double
LOOKUP_TABLE default
3
23
2
1
8
13
19
9
11
15
0
6
4
17
22
5
14
20
18
16
7
21
12
10

SCALARS interaction_phenotype double
LOOKUP_TABLE default
0
0
0
0
0
0
0
0
0
0
0
0
0
0
0
0
0
0
0
0
0
0
0
0

SCALARS vessel_interaction double
LOOKUP_TABLE default
0
0
0
0
0
0
0
0
0
0
0
0
0
0
0
0
0
0
0
0
0
0
0
0

SCALARS is_follower double
LOOKUP_TABLE default
1
1
1
1
1
1
1
1
1
1
1
1
1
1
1
1
1
1
1
1
1
1
1
1

SCALARS polarised double
LOOKUP_TABLE default
0
0
0
0
0
0
0
0
0
0
0
0
0
0
0
0
0
0
0
0
0
0
0
0

