# vtk DataFile Version 2.0
Unstructured grid legacy vtk file with point scalar data
ASCII

DATASET UNSTRUCTURED_GRID
POINTS 24 double
338.195 355.166 388.547
342.697 355.479 392.895
339.991 351.25 396.893
343.383 347.008 403.584
338.815 359.975 381.912
341.302 359.784 394.524
336.251 365.142 404.398
343.322 364.104 400.322
344.251 358.405 406.744
355.409 352.629 392.758
354.683 353.648 404.301
348.789 351.341 398.387
351.692 359.308 390.082
348.399 358.878 400.161
351.343 359.619 396.452
351.899 359.163 410.379
351.727 367.313 399.319
358.947 342.237 403.354
363.237 355.426 401.631
359.353 348.909 398.93
358.038 359.364 396.646
356.939 363.196 401.918
360.457 357.215 409.142
357.437 364.05 407.783

POINT_DATA 24
SCALARS radius double
LOOKUP_TABLE default
5.02478
4.09905
5.00303
5.0685
5.07091
4.09905
5.08817
5.03849
5.09905
5.08817
5.07091
5.07091
5.02478
4.2059
4.2059
5.08817
5.04712
5.03849
5.03849
5.03849
5.08817
4.39905
5.03849
4.49905

SCALARS status double
LOOKUP_TABLE default
1
1
1
1
1
1
1
1
1
1
1
1
1
1
1
1
1
1
1
1
1
1
1
1

SCALARS concentration double
LOOKUP_TABLE default
100
100
100
100
100
100
100
100
100
100
100
100
100
100
100
100
100
100
100
100
100
100
100
100

SCALARS fibres double
LOOKUP_TABLE default
0
0
0
0
0
0
0
0
0
0
0
0
0
0
0
0
0
0
0
0
0
0
0
0

SCALARS phenot double
LOOKUP_TABLE default
7
7
7
7
7
7
7
7
7
7
7
7
7
7
7
7
7
7
7
7
7
7
7
7

SCALARS cont_pheno double
LOOKUP_TABLE default
0.5
0.5
0.5
0.5
0.5
0.5
0.5
0.5
0.5
0.5
0.5
0.5
0.5
0.5
0.5
0.5
0.5
0.5
0.5
0.5
0.5
0.5
0.5
0.5

SCALARS name double
LOOKUP_TABLE default
3
23
2
1
8
13
11
19
9
15
0
6
4
17
22
5
14
20
16
18
7
21
12
10

SCALARS interaction_phenotype double
LOOKUP_TABLE default
0
0
0
0
0
0
0
0
0
0
0
0
0
0
0
0
0
0
0
0
0
0
0
0

SCALARS vessel_interaction double
LOOKUP_TABLE default
0
0
0
0
0
0
0
0
0
0
0
0
0
0
0
0
0
0
0
0
0
0
0
0

SCALARS is_follower double
LOOKUP_TABLE default
1
1
1
1
1
1
1
1
1
1
1
1
1
1
1
1
1
1
1
1
1
1
1
1

SCALARS polarised double
LOOKUP_TABLE default
0
0
0
0
0
0
0
0
0
0
0
0
0
0
0
0
0
0
0
0
0
0
0
0

