# vtk DataFile Version 2.0
Unstructured grid legacy vtk file with point scalar data
ASCII

DATASET UNSTRUCTURED_GRID
POINTS 14 double
339.621 351.446 397.117
345.083 347.83 402.994
338.718 358.179 382.848
340.509 357.816 390.678
340.076 361.815 399.862
342.771 358.028 396.54
353.041 352.93 404.265
347.82 354.527 397.978
354.054 357.015 393.045
346.83 360.209 404.673
354.769 363.152 404.321
351.784 357.982 410.99
358.452 358.392 399.038
360.764 355.644 405.072

POINT_DATA 14
SCALARS radius double
LOOKUP_TABLE default
5.00303
5.0685
5.07091
5.02478
4.18817
4.28817
5.07091
5.07091
5.07091
5.03849
5.03849
5.08817
4.58817
4.68817

SCALARS status double
LOOKUP_TABLE default
1
1
1
1
1
1
1
1
1
1
1
1
1
1

SCALARS concentration double
LOOKUP_TABLE default
100
100
100
100
100
100
100
100
100
100
100
100
100
100

SCALARS fibres double
LOOKUP_TABLE default
0
0
0
0
0
0
0
0
0
0
0
0
0
0

SCALARS phenot double
LOOKUP_TABLE default
7
7
7
7
7
7
7
7
7
7
7
7
7
7

SCALARS cont_pheno double
LOOKUP_TABLE default
0.5
0.5
0.5
0.5
0.5
0.5
0.5
0.5
0.5
0.5
0.5
0.5
0.5
0.5

SCALARS name double
LOOKUP_TABLE default
2
1
8
3
11
13
0
6
4
9
10
5
7
12

SCALARS interaction_phenotype double
LOOKUP_TABLE default
0
0
0
0
0
0
0
0
0
0
0
0
0
0

SCALARS vessel_interaction double
LOOKUP_TABLE default
0
0
0
0
0
0
0
0
0
0
0
0
0
0

SCALARS is_follower double
LOOKUP_TABLE default
1
1
1
1
1
1
1
1
1
1
1
1
1
1

SCALARS polarised double
LOOKUP_TABLE default
0
0
0
0
0
0
0
0
0
0
0
0
0
0

