# vtk DataFile Version 2.0
Unstructured grid legacy vtk file with point scalar data
ASCII

DATASET UNSTRUCTURED_GRID
POINTS 8 double
342.229 352.785 397.472
339.442 358.628 391.917
346.263 347.026 402.232
353.629 351.762 405.283
354.172 356.658 394.693
348.435 356.673 400.503
351.228 360.115 406.932
356.838 359.26 401.79

POINT_DATA 8
SCALARS radius double
LOOKUP_TABLE default
5.00303
5.00303
5.0685
5.07091
5.07091
5.07091
4.92478
4.82478

SCALARS status double
LOOKUP_TABLE default
1
1
1
1
1
1
1
1

SCALARS concentration double
LOOKUP_TABLE default
100
100
100
100
100
100
100
100

SCALARS fibres double
LOOKUP_TABLE default
0
0
0
0
0
0
0
0

SCALARS phenot double
LOOKUP_TABLE default
7
7
7
7
7
7
7
7

SCALARS cont_pheno double
LOOKUP_TABLE default
0.5
0.5
0.5
0.5
0.5
0.5
0.5
0.5

SCALARS name double
LOOKUP_TABLE default
2
3
1
0
4
6
5
7

SCALARS interaction_phenotype double
LOOKUP_TABLE default
0
0
0
0
0
0
0
0

SCALARS vessel_interaction double
LOOKUP_TABLE default
0
0
0
0
0
0
0
0

SCALARS is_follower double
LOOKUP_TABLE default
1
1
1
1
1
1
1
1

SCALARS polarised double
LOOKUP_TABLE default
0
0
0
0
0
0
0
0

