# vtk DataFile Version 2.0
Unstructured grid legacy vtk file with point scalar data
ASCII

DATASET UNSTRUCTURED_GRID
POINTS 43 double
73.2009 111.221 101.117
77.9242 104.703 107.755
80.5649 107.145 98.9656
77.452 109.737 105.762
94.1826 102.073 91.9329
88.5943 104.215 99.0355
95.2439 99.672 98.8824
90.7359 98.9054 108.286
87.709 99.3464 115.539
92.7017 102.537 121.44
90.9261 109.719 91.0428
92.7481 112.38 98.6661
95.1861 108.482 114.842
97.1684 93.6115 95.024
103.663 92.6639 100.925
97.5068 94.4706 106.158
103.027 100.111 97.2313
95.6324 103.495 104.735
102.827 104.546 103.497
99.32 102 111.19
101.529 97.0254 116.507
100.885 103.653 121.623
98.4702 108.383 87.4159
98.9882 107.266 97.6797
103.487 113.61 101.415
97.2336 111.223 106.447
102.874 109.142 112.167
102.364 110.44 118.72
99.4363 115.215 93.7183
96.8857 118.76 101.245
97.8797 119.466 109.446
107.728 103.202 81.8248
110.989 97.4929 94.3009
105.892 102.378 89.2874
105.116 97.054 107.945
109.556 103.256 110.811
112.148 105.763 79.024
107.542 107.762 96.3262
108.884 112.33 108.191
105.161 106.899 107.114
107.25 110.95 123.383
112.348 109.649 115.318
109.115 107.48 120.49

POINT_DATA 43
SCALARS radius double
LOOKUP_TABLE default
5.07271
4.12621
5.0053
4.22621
5.09809
5.04636
5.04636
5.09809
5.09809
5.07271
5.09809
5.09809
5.07271
5.03728
5.0053
5.09809
5.08666
5.04636
4.27271
5.0053
5.04636
5.0053
5.03728
5.09809
5.09809
5.07271
4.72621
4.72621
5.07271
5.02621
5.02621
4.19809
5.08666
5.03728
5.0053
5.0053
4.19809
5.03728
5.09809
4.27271
4.02621
5.07271
4.12621

SCALARS status double
LOOKUP_TABLE default
1
1
1
1
1
1
1
1
1
1
1
1
1
1
1
1
1
1
1
1
1
1
1
1
1
1
1
1
1
1
1
1
1
1
1
1
1
1
1
1
1
1
1

SCALARS concentration double
LOOKUP_TABLE default
38.9575
38.9575
38.9575
38.9575
38.9575
38.9575
38.9575
38.9575
38.9575
38.9575
38.9575
38.9575
38.9575
38.9575
38.9575
38.9575
38.9575
38.9575
38.9575
38.9575
38.9575
38.9575
38.9575
38.9575
38.9575
38.9575
38.9575
38.9575
38.9575
38.9575
38.9575
38.9575
38.9575
38.9575
38.9575
38.9575
38.9575
38.9575
38.9575
38.9575
38.9575
38.9575
38.9575

SCALARS fibres double
LOOKUP_TABLE default
0
0
0
0
0
0
0
0
0
0
0
0
0
0
0
0
0
0
0
0
0
0
0
0
0
0
0
0
0
0
0
0
0
0
0
0
0
0
0
0
0
0
0

SCALARS phenot double
LOOKUP_TABLE default
7
7
7
7
7
7
7
7
7
7
7
7
7
7
7
7
7
7
7
7
7
7
7
7
7
7
7
7
7
7
7
7
7
7
7
7
7
7
7
7
7
7
7

SCALARS cont_pheno double
LOOKUP_TABLE default
0.5
0.5
0.5
0.5
0.5
0.5
0.5
0.5
0.5
0.5
0.5
0.5
0.5
0.5
0.5
0.5
0.5
0.5
0.5
0.5
0.5
0.5
0.5
0.5
0.5
0.5
0.5
0.5
0.5
0.5
0.5
0.5
0.5
0.5
0.5
0.5
0.5
0.5
0.5
0.5
0.5
0.5
0.5

SCALARS name double
LOOKUP_TABLE default
21
26
15
40
2
11
37
1
35
16
31
36
32
3
23
10
0
29
20
4
13
28
6
7
27
22
14
38
24
17
33
34
5
25
8
12
41
9
18
39
19
30
42

SCALARS interaction_phenotype double
LOOKUP_TABLE default
0
0
0
0
0
0
0
0
0
0
0
0
0
0
0
0
0
0
0
0
0
0
0
0
0
0
0
0
0
0
0
0
0
0
0
0
0
0
0
0
0
0
0

SCALARS vessel_interaction double
LOOKUP_TABLE default
0
0
0
0
0
0
0
0
0
0
0
0
0
0
0
0
0
0
0
0
0
0
0
0
0
0
0
0
0
0
0
0
0
0
0
0
0
0
0
0
0
0
0

SCALARS is_follower double
LOOKUP_TABLE default
1
1
1
1
1
1
1
1
1
1
1
1
1
1
1
1
1
1
1
1
1
1
1
1
1
1
1
1
1
1
1
1
1
1
1
1
1
1
1
1
1
1
1

SCALARS polarised double
LOOKUP_TABLE default
0
0
0
0
0
0
0
0
0
0
0
0
0
0
0
0
0
0
0
0
0
0
0
0
0
0
0
0
0
0
0
0
0
0
0
0
0
0
0
0
0
0
0

