# vtk DataFile Version 2.0
Unstructured grid legacy vtk file with point scalar data
ASCII

DATASET UNSTRUCTURED_GRID
POINTS 74 double
71.5603 110.791 92.3358
68.5872 110.859 100.377
74.997 107.916 105.82
81.8526 100.44 92.5725
78.8395 102.706 111.164
80.6344 107.648 96.4534
82.6785 110.856 103.698
78.715 113.557 111.129
86.872 94.5424 113.012
94.5888 100.699 90.4385
88.7729 103.477 96.4577
95.1331 98.7478 99.443
90.0564 97.5833 106.491
86.4497 99.4364 119.922
94.0297 102.985 123.302
93.8706 98.6575 116.391
93.8671 111.007 71.6312
92.3547 110.912 78.0924
91.3548 109.057 91.9366
93.245 107.798 86.1738
93.9707 106.551 103.093
87.8307 112.237 97.2067
88.7537 109.152 109.16
94.9022 109.117 116.791
94.2341 122.025 95.3695
88.1499 117.234 104.103
96.3384 92.9421 92.8109
103.049 90.0304 97.1466
104.554 88.1672 105.348
100.016 95.1453 106.292
99.386 94.3031 121.14
99.5128 100.977 83.7277
102.64 96.0349 87.7713
102.244 99.0757 94.9718
101.956 103.203 102.307
95.4854 100.576 106.864
98.5567 104.346 111.124
103.013 97.8505 114.323
102.37 102.363 122.187
101.873 106.07 81.0626
96.304 113.93 83.8045
100.347 107.463 88.2828
96.0758 113.926 95.4258
97.275 105.892 95.7336
100.234 111.094 101.402
95.7719 112.628 108.909
103.122 110.597 113.822
101.281 111.104 121.989
101.914 116.288 89.5018
96.3748 118.892 103.008
102.048 118.478 97.0344
97.4853 120.917 110.993
102.717 115.23 107.33
109.145 94.3008 109.683
108.135 102.892 79.5298
110.993 97.1635 93.7417
107.313 103.172 88.499
106.861 96.2902 101.6
112.342 104.793 100.901
106.549 104.295 109.379
111.467 100.338 114.819
104.843 110.392 94.6737
111.313 105.878 94.6762
107.962 109.718 103.243
111.693 108.771 113.564
110.297 106.134 121.29
109.082 114.205 119.668
106.813 111.89 128.056
105.169 121.287 103.849
110.203 116.666 98.342
109.295 116.284 111.47
115.204 107.024 78.2357
114.773 114.197 105.324
117.244 110.786 118.795

POINT_DATA 74
SCALARS radius double
LOOKUP_TABLE default
5.02621
5.02621
5.08931
5.07271
5.02621
5.07271
5.07271
5.08931
5.04636
5.09809
5.04636
5.04636
4.54636
5.04636
5.02621
5.02621
4.4053
4.5053
4.34636
4.44636
5.0053
5.04636
5.07271
5.07271
5.08931
5.04636
5.03728
5.07271
5.07271
5.09809
5.0053
4.24636
5.09809
5.08666
5.07271
4.54636
5.0053
5.0053
5.0053
4.34636
5.04636
5.09809
5.02621
5.09809
5.02621
5.02621
5.02621
5.02621
5.02621
5.08931
5.0053
5.02621
5.07271
5.07271
5.09809
5.08666
5.09809
5.07271
4.44636
5.07271
5.0053
5.0053
4.34636
5.0053
5.02621
5.02621
5.08931
5.08931
4.97271
5.04636
5.0053
5.09809
5.0053
5.02621

SCALARS status double
LOOKUP_TABLE default
1
1
1
1
1
1
1
1
1
1
1
1
2
1
1
1
1
1
1
1
1
1
1
1
1
1
1
1
1
1
1
1
1
1
1
2
1
1
1
1
1
1
1
1
1
1
1
1
1
1
1
1
1
1
1
1
1
1
1
1
1
1
1
1
1
1
1
1
1
1
1
1
1
1

SCALARS concentration double
LOOKUP_TABLE default
38.9575
38.9575
38.9575
38.9575
38.9575
38.9575
38.9575
38.9575
38.9575
38.9575
38.9575
38.9575
38.9575
38.9575
38.9575
38.9575
38.9575
38.9575
38.9575
38.9575
38.9575
38.9575
38.9575
38.9575
38.9575
38.9575
38.9575
38.9575
38.9575
38.9575
38.9575
38.9575
38.9575
38.9575
38.9575
38.9575
38.9575
38.9575
38.9575
38.9575
38.9575
38.9575
38.9575
38.9575
38.9575
38.9575
38.9575
38.9575
38.9575
38.9575
38.9575
38.9575
38.9575
38.9575
38.9575
38.9575
38.9575
38.9575
38.9575
38.9575
38.9575
38.9575
38.9575
38.9575
38.9575
38.9575
38.9575
38.9575
38.9575
38.9575
38.9575
38.9575
38.9575
38.9575

SCALARS fibres double
LOOKUP_TABLE default
0
0
0
0
0
0
0
0
0
0
0
0
0
0
0
0
0
0
0
0
0
0
0
0
0
0
0
0
0
0
0
0
0
0
0
0
0
0
0
0
0
0
0
0
0
0
0
0
0
0
0
0
0
0
0
0
0
0
0
0
0
0
0
0
0
0
0
0
0
0
0
0
0
0

SCALARS phenot double
LOOKUP_TABLE default
7
7
7
7
7
7
7
7
7
7
7
7
7
7
7
7
7
7
7
7
7
7
7
7
7
7
7
7
7
7
7
7
7
7
7
7
7
7
7
7
7
7
7
7
7
7
7
7
7
7
7
7
7
7
7
7
7
7
7
7
7
7
7
7
7
7
7
7
7
7
7
7
7
7

SCALARS cont_pheno double
LOOKUP_TABLE default
0.5
0.5
0.5
0.5
0.5
0.5
0.5
0.5
0.5
0.5
0.5
0.5
0.45
0.5
0.5
0.5
0.5
0.5
0.5
0.5
0.5
0.5
0.5
0.5
0.5
0.5
0.5
0.5
0.5
0.5
0.5
0.5
0.5
0.5
0.5
0.45
0.5
0.5
0.5
0.5
0.5
0.5
0.5
0.5
0.5
0.5
0.5
0.5
0.5
0.5
0.5
0.5
0.5
0.5
0.5
0.5
0.5
0.5
0.5
0.5
0.5
0.5
0.5
0.5
0.5
0.5
0.5
0.5
0.5
0.5
0.5
0.5
0.5
0.5

SCALARS name double
LOOKUP_TABLE default
55
21
54
48
26
15
60
40
44
2
11
37
1
35
16
67
70
62
31
71
29
36
52
32
64
63
3
23
59
10
13
66
25
0
20
69
4
46
28
73
49
6
57
7
47
22
14
38
24
17
58
33
68
8
34
5
61
50
72
39
12
51
9
43
45
42
53
19
27
56
18
41
65
30

SCALARS interaction_phenotype double
LOOKUP_TABLE default
0
0
0
0
0
0
0
0
0
0
0
0
0
0
0
0
0
0
0
0
0
0
0
0
0
0
0
0
0
0
0
0
0
0
0
0
0
0
0
0
0
0
0
0
0
0
0
0
0
0
0
0
0
0
0
0
0
0
0
0
0
0
0
0
0
0
0
0
0
0
0
0
0
0

SCALARS vessel_interaction double
LOOKUP_TABLE default
0
0
0
0
0
0
0
0
0
0
0
0
0
0
0
0
0
0
0
0
0
0
0
0
0
0
0
0
0
0
0
0
0
0
0
0
0
0
0
0
0
0
0
0
0
0
0
0
0
0
0
0
0
0
0
0
0
0
0
0
0
0
0
0
0
0
0
0
0
0
0
0
0
0

SCALARS is_follower double
LOOKUP_TABLE default
1
1
1
1
1
1
1
1
1
1
1
1
1
1
1
1
1
1
1
1
1
1
1
1
1
1
1
1
1
1
1
1
1
1
1
1
1
1
1
1
1
1
1
1
1
1
1
1
1
1
1
1
1
1
1
1
1
1
1
1
1
1
1
1
1
1
1
1
1
1
1
1
1
1

SCALARS polarised double
LOOKUP_TABLE default
0
0
0
0
0
0
0
0
0
0
0
0
0
0
0
0
0
0
0
0
0
0
0
0
0
0
0
0
0
0
0
0
0
0
0
0
0
0
0
0
0
0
0
0
0
0
0
0
0
0
0
0
0
0
0
0
0
0
0
0
0
0
0
0
0
0
0
0
0
0
0
0
0
0

