# vtk DataFile Version 2.0
Unstructured grid legacy vtk file with point scalar data
ASCII

DATASET UNSTRUCTURED_GRID
POINTS 52 double
72.9042 110.493 100.202
81.1948 102.814 94.0642
78.2193 103.039 108.985
80.8776 107.77 99.6548
78.7774 111.47 106.351
88.1054 93.9748 112.806
94.0149 101.224 91.8366
88.4115 104.617 97.4971
95.2433 98.8483 99.2621
90.7323 99.0047 106.851
86.4546 100.469 118.057
93.5691 102.973 121.645
91.5449 109.621 90.8651
93.9288 105.654 104.129
91.5957 111.784 98.6258
94.4852 108.55 115.112
95.1897 119.481 100.79
97.8671 93.3179 93.7896
103.212 90.5778 99.6809
98.6289 95.0109 105.985
104.549 101.089 88.6576
103.318 99.0264 96.1121
101.654 102.515 102.945
98.4474 102.726 110.422
103.05 96.9798 113.194
100.402 95.3703 120.124
101.641 103.193 122.226
96.2973 111.974 83.7965
99.0202 106.655 88.5217
98.3724 114.032 93.7374
98.9005 106.323 96.3846
98.9886 111.451 101.492
96.5154 111.998 108.218
102.099 110.436 112.925
101.388 111.32 120.565
103.183 117.789 102.116
97.9779 119.612 109.361
106.088 102.468 81.0167
111.239 97.8879 93.4398
106.277 96.6746 102.153
107.656 96.328 107.951
111.001 101.382 112.022
113.542 105.908 78.7229
108.218 105.565 93.8536
106.345 110.251 101.661
105.417 109.958 96.8302
109.972 114.301 106.754
106.019 106.339 107.34
109.977 109.354 112.991
109.291 106.037 120.043
107.848 112.139 125.842
116.35 110.823 116.565

POINT_DATA 52
SCALARS radius double
LOOKUP_TABLE default
5.07271
4.77271
5.02621
4.87271
5.02621
5.04636
5.09809
5.04636
5.04636
5.09809
5.04636
5.07271
5.09809
5.04636
5.09809
5.07271
5.02621
5.03728
5.0053
5.09809
5.03728
5.08666
5.07271
5.0053
5.0053
5.0053
5.0053
4.89809
4.89809
5.07271
5.09809
4.92621
5.02621
5.02621
5.02621
5.04636
5.02621
5.09809
5.08666
4.67271
4.77271
5.0053
5.09809
5.03728
4.2053
4.2053
5.09809
5.07271
5.02621
5.02621
5.02621
5.02621

SCALARS status double
LOOKUP_TABLE default
1
1
1
1
1
1
1
1
1
1
1
1
1
1
1
1
1
1
1
1
1
1
1
1
1
1
1
1
1
1
1
1
1
1
1
1
1
1
1
1
1
1
1
1
1
1
1
1
1
1
1
1

SCALARS concentration double
LOOKUP_TABLE default
38.9575
38.9575
38.9575
38.9575
38.9575
38.9575
38.9575
38.9575
38.9575
38.9575
38.9575
38.9575
38.9575
38.9575
38.9575
38.9575
38.9575
38.9575
38.9575
38.9575
38.9575
38.9575
38.9575
38.9575
38.9575
38.9575
38.9575
38.9575
38.9575
38.9575
38.9575
38.9575
38.9575
38.9575
38.9575
38.9575
38.9575
38.9575
38.9575
38.9575
38.9575
38.9575
38.9575
38.9575
38.9575
38.9575
38.9575
38.9575
38.9575
38.9575
38.9575
38.9575

SCALARS fibres double
LOOKUP_TABLE default
0
0
0
0
0
0
0
0
0
0
0
0
0
0
0
0
0
0
0
0
0
0
0
0
0
0
0
0
0
0
0
0
0
0
0
0
0
0
0
0
0
0
0
0
0
0
0
0
0
0
0
0

SCALARS phenot double
LOOKUP_TABLE default
7
7
7
7
7
7
7
7
7
7
7
7
7
7
7
7
7
7
7
7
7
7
7
7
7
7
7
7
7
7
7
7
7
7
7
7
7
7
7
7
7
7
7
7
7
7
7
7
7
7
7
7

SCALARS cont_pheno double
LOOKUP_TABLE default
0.5
0.5
0.5
0.5
0.5
0.5
0.5
0.5
0.5
0.5
0.5
0.5
0.5
0.5
0.5
0.5
0.5
0.5
0.5
0.5
0.5
0.5
0.5
0.5
0.5
0.5
0.5
0.5
0.5
0.5
0.5
0.5
0.5
0.5
0.5
0.5
0.5
0.5
0.5
0.5
0.5
0.5
0.5
0.5
0.5
0.5
0.5
0.5
0.5
0.5
0.5
0.5

SCALARS name double
LOOKUP_TABLE default
21
48
26
15
40
44
2
11
37
1
35
16
31
29
36
32
17
3
23
10
25
0
20
4
46
13
28
49
6
24
7
47
22
14
38
27
33
34
5
50
8
12
41
9
43
51
18
39
45
42
19
30

SCALARS interaction_phenotype double
LOOKUP_TABLE default
0
0
0
0
0
0
0
0
0
0
0
0
0
0
0
0
0
0
0
0
0
0
0
0
0
0
0
0
0
0
0
0
0
0
0
0
0
0
0
0
0
0
0
0
0
0
0
0
0
0
0
0

SCALARS vessel_interaction double
LOOKUP_TABLE default
0
0
0
0
0
0
0
0
0
0
0
0
0
0
0
0
0
0
0
0
0
0
0
0
0
0
0
0
0
0
0
0
0
0
0
0
0
0
0
0
0
0
0
0
0
0
0
0
0
0
0
0

SCALARS is_follower double
LOOKUP_TABLE default
1
1
1
1
1
1
1
1
1
1
1
1
1
1
1
1
1
1
1
1
1
1
1
1
1
1
1
1
1
1
1
1
1
1
1
1
1
1
1
1
1
1
1
1
1
1
1
1
1
1
1
1

SCALARS polarised double
LOOKUP_TABLE default
0
0
0
0
0
0
0
0
0
0
0
0
0
0
0
0
0
0
0
0
0
0
0
0
0
0
0
0
0
0
0
0
0
0
0
0
0
0
0
0
0
0
0
0
0
0
0
0
0
0
0
0

