# vtk DataFile Version 2.0
Unstructured grid legacy vtk file with point scalar data
ASCII

DATASET UNSTRUCTURED_GRID
POINTS 178 double
64.9055 113.114 102.296
65.5177 114.698 93.3349
67.805 101.438 102.877
71.6351 109.16 91.7849
72.4668 108.697 100.225
70.0514 106.612 111.811
75.81 115.668 96.9276
84.6465 91.1407 101.808
84.0878 93.5657 110.189
79.8719 93.5794 116.208
82.4506 91.688 123.626
77.6319 99.6826 90.3761
82.9319 97.4006 96.4142
83.7718 101.765 103.515
76.3367 104.705 106.701
78.0718 96.3913 106.279
84.9329 102.479 111.708
77.3678 103.143 115.004
83.6231 99.6288 119.01
81.8192 99.5253 125.742
79.2055 112.739 81.9022
83.8689 110.466 89.312
80.3033 111.161 103.206
82.4936 106.454 96.323
77.2374 111.375 111.469
85.542 110.654 109.773
83.1175 113.609 118.136
84.5477 114.529 96.6428
81.8132 119.484 112.486
83.6165 123.41 105.612
94.1784 85.4475 95.2462
90.534 93.2826 95.5575
94.0299 89.3891 102.52
88.1779 86.6211 108.451
89.8638 95.0265 105.353
93.6432 90.5227 110.658
88.32 93.1085 118.142
88.3659 98.4832 89.365
89.532 101.729 96.9815
92.1319 100.892 103.658
91.1748 97.2406 111.781
93.0035 103.584 107.147
91.8244 100.559 117.857
89.843 101.131 124.965
91.0391 103.617 133.085
90.112 109.979 68.2442
89.3879 112.499 75.9384
90.1108 106.283 81.7885
91.8628 105.854 90.6536
90.7254 112.239 86.4139
88.5577 108.191 102.454
93.338 110.019 96.8536
92.4476 108.323 113.059
87.0608 106.576 119.211
92.4701 112.894 119.951
85.8638 115.522 82.6635
89.7493 121.03 78.6976
88.3244 118.997 89.6878
94.8374 123.268 90.8904
91.9526 118.964 97.1769
87.9453 115.995 103.212
90.0883 120.329 109.066
89.4337 117.208 114.975
91.9468 127.419 96.5591
102.571 82.7078 101.996
103.848 84.9501 109.728
99.5381 93.1144 84.961
101.82 85.9879 89.0223
101.38 92.8146 92.3864
101.6 88.3158 97.3754
102.982 91.1786 104.575
98.0332 95.2396 99.2761
100.294 91.1646 112.755
99.9804 91.7507 123.666
100.75 100.49 79.0396
95.8247 101.908 85.2152
96.9436 98.7613 91.8424
103.716 99.4435 87.616
103.177 101.187 102.797
97.2555 103.264 97.9097
97.8937 96.7434 107.146
96.8192 102.447 112.056
100.961 97.6125 117.124
97.9066 104.246 121.3
99.3433 102.321 129.553
104.568 113.866 65.4723
95.3541 106.446 75.55
98.1641 110.615 69.1492
103.38 109.112 76.2601
101.638 107.981 84.1918
99.4577 107.289 91.7342
101.796 108.935 99.4579
104.515 109.856 106.677
97.1269 107.299 105.615
102.18 106.758 115.005
103.931 108.336 124.902
96.8493 117.084 75.8896
96.3392 114.352 83.1044
103.399 116.286 83.3227
98.3869 122.586 84.0087
95.395 114.911 90.9449
104.092 121.039 90.4557
95.8322 114.404 102.194
95.7794 121.961 104.497
101.03 115.132 95.6341
102.179 116.964 104.638
96.5537 114.413 109.986
104.123 114.775 113.322
103.526 122.544 110.575
97.7307 119.435 116.422
98.4713 115.104 124.759
103.264 121.307 125.303
101.949 122.874 131.58
99.6762 127.002 99.0808
104.208 129.269 105.28
96.6603 127.156 110.954
106.819 94.5029 79.1748
108.212 91.994 87.3518
109.069 86.7482 94.1857
109.774 86.9062 102.772
109.936 91.8262 109.683
105.422 89.1939 117.506
108.66 102.705 78.2987
108.065 95.4405 94.8843
108.681 104.625 85.7658
113.129 98.8989 89.1794
105.903 103.466 94.6912
109.869 95.949 102.885
113.198 101.939 96.9481
105.432 99.2596 110.184
113.44 100.128 108.99
106.523 101.941 120.896
113.382 95.4904 123.22
114.131 102.254 117.861
109.438 96.1799 116.128
107.147 98.2394 128.313
113.949 102.996 126.724
109.237 105.794 70.749
109.617 111.374 81.9997
113.032 107.996 91.0118
106.745 112.779 89.9371
108.358 113.034 98.5951
113.77 106.128 102.77
109.179 106.789 112.09
112.331 110.599 106.128
111.142 108.841 121.249
107.661 106.19 131.842
114.198 111.556 131.852
107.716 116.641 76.1998
110.741 119.082 85.2141
111.408 120.93 94.7758
105.258 120.884 98.594
109.843 116.87 105.439
112.062 114.403 112.355
109.861 121.585 115.959
106.71 115.644 121.728
105.749 114.614 130.326
105.87 126.504 84.7114
110.097 124.166 104.197
107.694 127.801 96.6568
119.838 93.8937 90.2164
116.268 94.4539 97.5439
117.646 95.2555 114.518
118.861 97.5303 82.2295
119.303 100.677 102.678
115.953 108.456 74.0819
115.917 105.534 83.514
120.459 107.175 78.0328
121.166 107.9 106.002
116.8 107.156 112.241
117.615 112.815 116.983
118.367 110.087 124.959
114.874 116.022 91.185
116.119 114.561 99.965
118.565 115.445 108.135
115.151 118.628 122.343
122.881 119.178 118.452
122.56 115.748 124.165

POINT_DATA 178
SCALARS radius double
LOOKUP_TABLE default
5.08931
5.08931
5.03939
5.02621
5.08931
5.08931
5.08931
5.0053
5.02621
5.02621
5.0053
5.07271
5.0053
5.07271
5.03939
5.0053
5.08931
5.08931
4.47271
4.57271
4.77271
5.04636
5.07271
5.02621
5.03939
5.08931
5.08931
5.04636
5.03939
5.0053
5.09809
5.0053
5.0053
5.0053
4.9053
4.92621
5.07271
5.04636
5.07271
4.09976
5.0053
4.09976
5.08931
5.08931
5.08931
5.07271
5.0053
5.04636
5.0053
5.02272
5.0053
5.0053
5.02621
5.08931
5.07271
4.87271
5.07271
5.03939
4.93939
5.03939
5.0053
4.98931
4.98931
5.03939
5.02621
5.02621
5.09809
5.02621
4.8053
4.9053
5.09809
5.04636
5.02621
5.0053
5.04636
5.04636
5.08931
5.09809
5.08931
5.08931
5.03939
5.08931
5.03939
5.08931
5.08931
5.02621
5.0053
5.02621
5.0053
5.09809
5.0053
5.0053
5.08931
5.02621
5.08931
5.08931
5.07271
5.02272
5.03939
5.09976
5.06831
5.07271
5.03939
5.03939
5.09976
5.08931
5.08931
5.02621
5.07271
5.08931
5.08931
4.74768
4.74768
5.03939
5.07271
5.08931
5.04636
5.09809
5.08931
5.08931
5.02621
5.07271
5.02621
5.09809
5.02621
5.09809
5.09809
5.07271
5.09809
5.07271
5.08931
5.03939
5.07271
5.03939
5.07271
5.0053
5.08931
5.07271
5.02621
5.04636
5.02621
5.07271
4.67271
5.09976
4.67271
5.08931
5.09976
5.09976
5.03939
5.03939
4.72621
5.08931
5.02621
5.02621
5.0053
5.08931
5.09976
5.09976
5.07271
5.02621
5.09809
5.03728
5.08931
5.07271
5.04636
4.34636
5.07271
4.34636
5.04768
5.04768
5.03939
5.08931
4.72621
5.07271
5.0053
5.03939
4.63939
4.73939

SCALARS status double
LOOKUP_TABLE default
1
1
1
1
1
1
1
1
1
1
1
1
1
1
1
1
1
1
1
1
1
1
1
1
1
1
1
1
1
1
1
1
1
1
2
1
1
1
1
1
2
1
1
1
1
1
1
1
1
1
1
1
1
1
1
1
1
1
1
1
1
1
1
1
1
1
1
1
1
1
1
1
1
1
1
1
1
1
1
1
1
1
1
1
1
1
1
1
1
1
1
1
1
1
1
1
1
1
1
1
1
1
1
1
1
1
1
1
1
1
1
1
1
1
1
1
1
1
1
1
1
1
1
1
1
1
1
1
1
1
1
1
1
1
1
1
1
1
1
1
1
1
1
1
1
1
1
1
1
1
1
1
1
1
1
1
1
1
1
1
1
1
1
1
1
1
1
1
1
1
1
1
1
1
1
1
1
1

SCALARS concentration double
LOOKUP_TABLE default
34.4128
34.86
33.6655
35.1842
35.0611
34.7652
36.6135
35.6299
35.0071
35.0071
34.7393
35.0223
36.1108
37.2165
35.4016
35.6299
37.6381
35.3189
35.8637
35.8637
38.3969
37.9921
36.9403
36.4153
36.4044
38.0035
38.0035
38.2926
38.2658
39.0578
35.5803
36.3559
36.5692
35.1196
36.6892
38.1319
35.9857
36.5237
37.5849
38.2641
36.6892
38.2641
37.8005
37.5292
37.9769
39.3081
38.7479
38.7088
38.9275
41.2466
38.09
38.9275
39.2791
37.4803
39.2266
38.3969
40.7712
40.0877
42.2639
40.4274
39.5437
40.0073
40.0073
42.2639
36.3726
36.7162
37.9313
36.8527
37.319
37.319
38.1804
37.4989
38.1319
37.5493
39.1766
38.4807
38.5913
40.4254
39.6258
38.5913
38.2641
37.8005
38.8638
38.9067
38.9213
41.7097
39.4678
41.7097
41.4161
40.8589
40.834
40.834
41.5773
39.2791
40.1952
41.4952
40.7712
41.2466
42.8912
43.53
41.2466
44.128
40.3223
41.7013
41.2466
43.3481
41.2339
42.7336
44.0719
42.5431
41.0738
43.1466
43.1466
43.6386
45.6046
42.9547
39.391
38.7939
37.889
37.9308
39.348
38.1336
41.4361
39.3469
41.4361
40.9289
41.6302
39.9137
41.6302
40.2067
41.7636
40.3782
40.1002
42.0702
40.1002
39.973
42.2831
42.1442
43.5179
43.2416
43.255
43.5434
43.3296
42.5379
43.3296
42.2831
42.393
44.3397
44.2816
46.1285
46.3949
43.3481
44.8147
44.8147
45.7648
43.6875
43.1466
46.2952
46.6918
46.3146
40.9289
41.0433
41.2407
43.2328
43.081
44.655
43.2328
44.655
44.0709
44.0709
45.4864
45.3167
46.3949
46.4606
46.8938
46.3666
48.8627
48.8627

SCALARS fibres double
LOOKUP_TABLE default
0
0
0
0
0
0
0
0
0
0
0
0
0
0
0
0
0
0
0
0
0
0
0
0
0
0
0
0
0
0
0
0
0
0
0
0
0
0
0
0
0
0
0
0
0
0
0
0
0
0
0
0
0
0
0
0
0
0
0
0
0
0
0
0
0
0
0
0
0
0
0
0
0
0
0
0
0
0
0
0
0
0
0
0
0
0
0
0
0
0
0
0
0
0
0
0
0
0
0
0
0
0
0
0
0
0
0
0
0
0
0
0
0
0
0
0
0
0
0
0
0
0
0
0
0
0
0
0
0
0
0
0
0
0
0
0
0
0
0
0
0
0
0
0
0
0
0
0
0
0
0
0
0
0
0
0
0
0
0
0
0
0
0
0
0
0
0
0
0
0
0
0
0
0
0
0
0
0

SCALARS phenot double
LOOKUP_TABLE default
7
7
7
7
7
7
7
7
7
7
7
7
7
7
7
7
7
7
7
7
7
7
7
7
7
7
7
7
7
7
7
7
7
7
7
7
7
7
7
7
7
7
7
7
7
7
7
7
7
7
7
7
7
7
7
7
7
7
7
7
7
7
7
7
7
7
7
7
7
7
7
7
7
7
7
7
7
7
7
7
7
7
7
7
7
7
7
7
7
7
7
7
7
7
7
7
7
7
7
7
7
7
7
7
7
7
7
7
7
7
7
7
7
7
7
7
7
7
7
7
7
7
7
7
7
7
7
7
7
7
7
7
7
7
7
7
7
7
7
7
7
7
7
7
7
7
7
7
7
7
7
7
7
7
7
7
7
7
7
7
7
7
7
7
7
7
7
7
7
7
7
7
7
7
7
7
7
7

SCALARS cont_pheno double
LOOKUP_TABLE default
0.5
0.5
0.5
0.5
0.5
0.5
0.5
0.5
0.5
0.5
0.5
0.5
0.5
0.5
0.5
0.5
0.5
0.5
0.5
0.5
0.5
0.5
0.5
0.5
0.5
0.5
0.5
0.5
0.5
0.5
0.5
0.5
0.5
0.5
0.45
0.5
0.5
0.5
0.5
0.5
0.45
0.5
0.5
0.5
0.5
0.5
0.5
0.5
0.5
0.5
0.5
0.5
0.5
0.5
0.5
0.5
0.5
0.5
0.5
0.5
0.5
0.5
0.5
0.5
0.5
0.5
0.5
0.5
0.5
0.5
0.5
0.5
0.5
0.5
0.5
0.5
0.5
0.5
0.5
0.5
0.5
0.5
0.5
0.5
0.5
0.5
0.5
0.5
0.5
0.5
0.5
0.5
0.5
0.5
0.5
0.5
0.5
0.5
0.5
0.5
0.5
0.5
0.5
0.5
0.5
0.5
0.5
0.5
0.5
0.5
0.5
0.5
0.5
0.5
0.5
0.5
0.5
0.5
0.5
0.5
0.5
0.5
0.5
0.5
0.5
0.5
0.5
0.5
0.5
0.5
0.5
0.5
0.5
0.5
0.5
0.5
0.5
0.5
0.5
0.5
0.5
0.5
0.5
0.5
0.5
0.5
0.5
0.5
0.5
0.5
0.5
0.5
0.5
0.5
0.5
0.5
0.5
0.5
0.5
0.5
0.5
0.5
0.5
0.5
0.5
0.5
0.5
0.5
0.5
0.5
0.5
0.5
0.5
0.5
0.5
0.55
0.5
0.5

SCALARS name double
LOOKUP_TABLE default
21
99
91
55
109
132
15
1
159
44
86
48
11
136
54
152
52
26
35
175
169
31
60
74
40
118
141
36
76
96
3
94
37
97
165
168
120
122
93
154
69
177
67
100
16
70
62
71
7
163
29
149
144
138
32
89
156
114
64
85
63
166
22
167
104
59
78
23
170
87
10
139
119
13
66
2
106
61
20
147
124
158
133
140
88
103
73
160
121
6
142
113
47
4
110
128
49
150
24
135
57
79
115
17
143
148
95
14
68
33
38
146
171
134
27
116
75
25
125
84
8
46
107
123
157
5
145
50
0
39
98
80
12
81
153
28
42
34
77
9
117
51
43
130
172
161
19
137
101
127
56
58
83
162
18
53
105
90
102
92
155
129
111
151
72
41
82
176
126
164
45
108
173
112
65
131
30
174

SCALARS interaction_phenotype double
LOOKUP_TABLE default
0
0
0
0
0
0
0
0
0
0
0
0
0
0
0
0
0
0
0
0
0
0
0
0
0
0
0
0
0
0
0
0
0
0
0
0
0
0
0
0
0
0
0
0
0
0
0
0
0
0
0
0
0
0
0
0
0
0
0
0
0
0
0
0
0
0
0
0
0
0
0
0
0
0
0
0
0
0
0
0
0
0
0
0
0
0
0
0
0
0
0
0
0
0
0
0
0
0
0
0
0
0
0
0
0
0
0
0
0
0
0
0
0
0
0
0
0
0
0
0
0
0
0
0
0
0
0
0
0
0
0
0
0
0
0
0
0
0
0
0
0
0
0
0
0
0
0
0
0
0
0
0
0
0
0
0
0
0
0
0
0
0
0
0
0
0
0
0
0
0
0
0
0
0
0
0
0
0

SCALARS vessel_interaction double
LOOKUP_TABLE default
0
0
0
0
0
0
0
0
0
0
0
0
0
0
0
0
0
0
0
0
0
0
0
0
0
0
0
0
0
0
0
0
0
0
0
0
0
0
0
0
0
0
0
0
0
0
0
0
0
0
0
0
0
0
0
0
0
0
0
0
0
0
0
0
0
0
0
0
0
0
0
0
0
0
0
0
0
0
0
0
0
0
0
0
0
0
0
0
0
0
0
0
0
0
0
0
0
0
0
0
0
0
0
0
0
0
0
0
0
0
0
0
0
0
0
0
0
0
0
0
0
0
0
0
0
0
0
0
0
0
0
0
0
0
0
0
0
0
0
0
0
0
0
0
0
0
0
0
0
0
0
0
0
0
0
0
0
0
0
0
0
0
0
0
0
0
0
0
0
0
0
0
0
0
0
0
0
0

SCALARS is_follower double
LOOKUP_TABLE default
1
1
1
1
1
1
1
1
1
1
1
1
1
1
1
1
1
1
1
1
1
1
1
1
1
1
1
1
1
1
1
1
1
1
1
1
1
1
1
1
1
1
1
1
1
1
1
1
1
1
1
1
1
1
1
1
1
1
1
1
1
1
1
1
1
1
1
1
1
1
1
1
1
1
1
1
1
1
1
1
1
1
1
1
1
1
1
1
1
1
1
1
1
1
1
1
1
1
1
1
1
1
1
1
1
1
1
1
1
1
1
1
1
1
1
1
1
1
1
1
1
1
1
1
1
1
1
1
1
1
1
1
1
1
1
1
1
1
1
1
1
1
1
1
1
1
1
1
1
1
1
1
1
1
1
1
1
1
1
1
1
1
1
1
1
1
1
1
1
1
1
1
1
1
1
1
1
1

SCALARS polarised double
LOOKUP_TABLE default
0
0
0
0
0
0
0
0
0
0
0
0
0
0
0
0
0
0
0
0
0
0
0
0
0
0
0
0
0
0
0
0
0
0
0
0
0
0
0
0
0
0
0
0
0
0
0
0
0
0
0
0
0
0
0
0
0
0
0
0
0
0
0
0
0
0
0
0
0
0
0
0
0
0
0
0
0
0
0
0
0
0
0
0
0
0
0
0
0
0
0
0
0
0
0
0
0
0
0
0
0
0
0
0
0
0
0
0
0
0
0
0
0
0
0
0
0
0
0
0
0
0
0
0
0
0
0
0
0
0
0
0
0
0
0
0
0
0
0
0
0
0
0
0
0
0
0
0
0
0
0
0
0
0
0
0
0
0
0
0
0
0
0
0
0
0
0
0
0
0
0
0
0
0
0
0
0
0

