# vtk DataFile Version 2.0
Unstructured grid legacy vtk file with point scalar data
ASCII

DATASET UNSTRUCTURED_GRID
POINTS 5 double
94.6747 103.612 98.2357
91.403 97.5664 107.785
95.5485 95.1359 100.266
102.437 100.255 100.71
98.5908 101.317 108.226

POINT_DATA 5
SCALARS radius double
LOOKUP_TABLE default
5.02287
5.03728
5.08666
5.0685
5.03728

SCALARS status double
LOOKUP_TABLE default
1
1
1
1
1

SCALARS concentration double
LOOKUP_TABLE default
38.9575
38.9575
38.9575
38.9575
38.9575

SCALARS fibres double
LOOKUP_TABLE default
0
0
0
0
0

SCALARS phenot double
LOOKUP_TABLE default
7
7
7
7
7

SCALARS cont_pheno double
LOOKUP_TABLE default
0.5
0.5
0.5
0.5
0.5

SCALARS name double
LOOKUP_TABLE default
2
1
3
0
4

SCALARS interaction_phenotype double
LOOKUP_TABLE default
0
0
0
0
0

SCALARS vessel_interaction double
LOOKUP_TABLE default
0
0
0
0
0

SCALARS is_follower double
LOOKUP_TABLE default
1
1
1
1
1

SCALARS polarised double
LOOKUP_TABLE default
0
0
0
0
0

