# vtk DataFile Version 2.0
Unstructured grid legacy vtk file with point scalar data
ASCII

DATASET UNSTRUCTURED_GRID
POINTS 152 double
65.1069 113.01 102.095
65.6119 115.182 93.3629
67.6095 101.125 102.608
72.0193 109.602 91.7514
71.8928 108.217 100.25
70.3227 106.11 111.275
85.109 93.8431 103.562
83.1386 94.0844 112.581
82.0569 92.2244 122.925
78.5268 99.3249 91.7098
84.8733 98.7408 96.2078
76.8154 104.098 106.352
77.1222 103.334 115.257
83.3925 99.7856 119.341
79.878 110.973 103.43
81.5933 106.562 95.9525
77.6409 110.996 111.426
84.6898 113.004 116.268
84.9072 114.461 82.962
84.8676 114.436 97.1595
76.8729 114.762 96.8768
81.4055 119.066 113.074
83.7915 122.098 105.814
94.2345 85.5193 94.9157
90.8401 93.2455 95.4437
93.7847 92.0431 103.828
88.692 88.3327 108.869
88.9988 94.2476 118.602
94.5208 103.16 87.3322
88.5567 97.8875 88.3917
91.3638 101.353 98.3427
87.6997 101.403 104.471
90.3805 95.8574 110.667
86.5605 103.347 111.519
93.7198 100.612 115.694
90.634 102.238 124.285
91.9795 103.755 132.119
92.3462 110.25 68.0834
88.4002 111.504 75.6371
91.4031 108.503 82.6675
86.6114 109.673 89.9428
93.4227 108.073 92.8042
88.5313 108.709 101.343
93.7612 108.148 97.917
86.0841 110.947 108.898
93.4987 107.798 112.843
87.3144 106.077 118.497
92.5779 112.435 119.052
94.4401 116.238 80.2051
89.6567 117.963 88.6331
94.6109 123.804 92.964
92.6272 117.087 96.7224
94.3051 121.985 104.493
89.296 116.36 104.685
90.3891 117.995 113.093
101.234 83.8002 101.754
101.568 86.5178 90.0017
99.0689 94.3779 86.783
101.052 89.4948 96.7754
102.463 92.9363 104.141
102.941 85.7699 109.827
98.6305 93.7634 111.03
99.6841 92.5729 123.242
100.181 100.762 81.2728
99.0261 99.3303 91.9796
97.8131 95.9815 98.4426
102.6 101.564 102.75
97.687 102.561 97.3526
95.7681 99.4408 105.682
100.837 97.9879 116.95
97.865 103.744 121.449
98.8387 101.542 128.579
100.675 112.385 66.8609
95.5595 106.546 75.6307
102.844 109.436 77.9123
102.35 107.777 85.236
100.269 106.65 91.6753
100.915 113.842 94.5658
96.4006 114.012 90.2053
100.972 108.115 99.0137
96.3283 112.676 101.605
103.775 110.252 105.32
96.4408 106.816 106.048
104.404 114.044 113.353
101.255 107.145 115.801
104.52 107.705 123.903
98.5677 113.209 124.243
104.743 114.091 129.954
102.935 115.612 83.9962
98.7688 122.315 84.8325
95.547 114.58 85.5178
103.074 120.923 91.5822
103.353 118.814 99.0522
101.951 117.328 104.091
97.1024 114.683 108.924
103.568 120.801 109.498
98.5597 120.271 115.615
102.91 120.604 127.267
99.3024 125.586 99.4112
104.154 128.909 105.502
95.8612 126.864 110.962
107.09 95.1823 79.2705
107.396 92.0872 87.6847
108.814 87.8118 95.2338
108.989 86.8187 103.523
110.606 92.3792 109.914
105.199 90.9237 116.22
108.001 103.279 80.7413
113.223 98.0413 89.1394
105.476 100.653 88.069
106.434 95.528 95.2497
109.665 96.1577 102.34
111.816 103.811 97.1967
105.258 102.911 95.5372
105.226 99.5441 109.751
113.45 100.343 107.959
106.239 101.71 119.893
111.807 95.9009 119.859
112.687 103.994 123.744
113.009 103.074 115.717
106.609 99.4517 127.895
109.027 105.146 72.229
110.036 110.522 83.4327
112.58 106.436 90.1845
107.582 113.015 90.2566
107.906 112.266 98.5809
112.407 107.991 103.7
108.576 107.383 110.675
107.36 106.952 131.175
108.141 115.809 76.8891
110.837 118.434 84.6987
110.997 119.181 94.5379
109.822 122.569 103.514
109.743 114.996 106.71
109.901 119.955 114.101
106.521 115.96 121.433
114.326 118.56 120.845
106.707 125.668 85.0935
106.899 126.227 97.3205
115.465 95.0395 96.4187
115.416 104.466 83.3931
118.375 99.8274 82.9264
118.041 102.207 100.902
117.784 95.7218 113.701
116.549 108.235 75.9227
117.529 106.569 109.389
116.831 112.166 115.745
117.469 110.935 123.576
114.582 111.107 131.432
116.01 114.354 99.7734
118.638 115.014 107.839
122.468 117.172 120.186

POINT_DATA 152
SCALARS radius double
LOOKUP_TABLE default
5.08931
5.08931
5.03939
5.02621
5.08931
5.08931
5.04636
5.07271
5.0053
5.07271
5.0053
5.03939
5.08931
5.0053
5.07271
5.02621
5.03939
5.08931
5.0053
5.04636
5.08931
5.03939
5.0053
5.09809
5.0053
5.0053
5.0053
5.07271
5.04636
5.04636
5.07271
5.07271
5.04636
5.08931
5.02621
5.08931
5.08931
5.07271
5.0053
5.04636
5.04636
4.2053
5.0053
4.2053
5.08931
5.02621
5.08931
5.07271
5.0053
5.03939
5.08931
5.03939
5.03939
5.0053
5.02621
5.02621
5.02621
5.09809
5.04636
5.09809
5.02621
5.07271
5.0053
5.04636
4.78931
5.04636
5.08931
4.78931
5.08931
5.03939
5.08931
5.08931
5.07271
5.0053
5.0053
5.09809
5.0053
5.09976
4.16831
5.0053
5.03939
5.08931
5.02621
5.02621
5.08931
5.08931
5.08931
4.89976
5.03939
5.09976
4.16831
5.07271
4.28931
4.28931
5.08931
5.07271
5.08931
4.99976
5.03939
5.07271
5.08931
5.04636
5.09809
5.08931
5.08931
5.02621
5.07271
5.07271
5.03728
5.09809
5.09809
5.07271
5.09809
5.09809
5.07271
5.08931
5.03939
5.0053
5.02621
5.03939
5.0053
5.07271
5.02621
5.04636
5.02621
5.07271
5.0053
5.09976
5.09976
5.03939
5.03939
5.07271
5.07271
5.07271
5.0053
5.08931
5.03939
5.09976
5.02621
5.03728
4.07271
4.17271
5.04636
5.08931
5.09809
5.09976
5.03939
5.08931
5.09976
5.07271
5.0053
5.08931

SCALARS status double
LOOKUP_TABLE default
1
1
1
1
1
1
1
1
1
1
1
1
1
1
1
1
1
1
1
1
1
1
1
1
1
1
1
1
1
1
1
1
2
1
1
1
1
1
1
1
1
1
1
1
1
1
1
1
1
1
1
1
1
1
1
1
1
1
1
1
1
1
1
1
1
1
1
1
1
1
1
1
1
1
1
1
1
1
1
1
1
1
1
1
1
1
1
1
1
1
1
1
1
1
1
1
1
1
1
1
1
1
1
1
1
1
1
1
1
1
1
1
1
1
1
1
1
1
1
1
1
1
1
1
1
1
1
1
1
1
1
1
1
1
1
1
1
1
1
1
1
1
1
1
1
1
1
1
1
1
1
1

SCALARS concentration double
LOOKUP_TABLE default
34.4128
34.86
33.6655
35.1842
35.0611
34.7652
35.6299
35.0071
34.7393
35.0223
36.1108
35.4016
35.3189
35.8637
36.9403
36.4153
36.4044
38.0035
38.3969
38.2926
36.6135
38.2658
39.0578
35.5803
36.3559
36.5692
35.1196
35.9857
38.4807
36.5237
37.5849
37.2165
36.6892
37.6381
37.8005
37.5292
37.9769
39.3081
38.7479
38.7088
37.9921
38.9275
38.09
38.9275
38.0035
39.2791
37.4803
39.2266
40.7712
40.0877
42.2639
40.4274
41.7013
39.5437
40.0073
36.3726
36.8527
37.9313
37.319
38.1804
36.7162
38.1319
37.5493
39.1766
38.5913
37.4989
39.6258
38.5913
38.2641
38.8638
38.9067
38.9213
41.7097
39.4678
41.4161
40.8589
40.834
41.2466
41.2466
40.834
40.3223
41.5773
39.2791
42.7336
40.1952
41.4952
41.0738
43.1466
42.8912
43.53
41.2466
44.128
43.3481
43.3481
41.2339
44.0719
42.5431
43.1466
43.6386
45.6046
42.9547
39.391
38.7939
37.889
37.9308
39.348
38.1336
41.4361
40.9289
40.4254
39.3469
39.9137
41.6302
41.6302
40.2067
41.7636
40.3782
40.1002
42.2831
42.0702
39.973
42.1442
43.5179
43.2416
43.255
43.5434
43.3296
42.5379
42.393
44.2816
46.1285
46.3949
46.6918
44.8147
45.7648
43.6875
46.3666
46.2952
46.3146
41.0433
43.2328
43.2328
43.081
41.2407
44.655
44.0709
45.4864
45.3167
44.3397
46.4606
46.8938
48.8627

SCALARS fibres double
LOOKUP_TABLE default
0
0
0
0
0
0
0
0
0
0
0
0
0
0
0
0
0
0
0
0
0
0
0
0
0
0
0
0
0
0
0
0
0
0
0
0
0
0
0
0
0
0
0
0
0
0
0
0
0
0
0
0
0
0
0
0
0
0
0
0
0
0
0
0
0
0
0
0
0
0
0
0
0
0
0
0
0
0
0
0
0
0
0
0
0
0
0
0
0
0
0
0
0
0
0
0
0
0
0
0
0
0
0
0
0
0
0
0
0
0
0
0
0
0
0
0
0
0
0
0
0
0
0
0
0
0
0
0
0
0
0
0
0
0
0
0
0
0
0
0
0
0
0
0
0
0
0
0
0
0
0
0

SCALARS phenot double
LOOKUP_TABLE default
7
7
7
7
7
7
7
7
7
7
7
7
7
7
7
7
7
7
7
7
7
7
7
7
7
7
7
7
7
7
7
7
7
7
7
7
7
7
7
7
7
7
7
7
7
7
7
7
7
7
7
7
7
7
7
7
7
7
7
7
7
7
7
7
7
7
7
7
7
7
7
7
7
7
7
7
7
7
7
7
7
7
7
7
7
7
7
7
7
7
7
7
7
7
7
7
7
7
7
7
7
7
7
7
7
7
7
7
7
7
7
7
7
7
7
7
7
7
7
7
7
7
7
7
7
7
7
7
7
7
7
7
7
7
7
7
7
7
7
7
7
7
7
7
7
7
7
7
7
7
7
7

SCALARS cont_pheno double
LOOKUP_TABLE default
0.5
0.5
0.5
0.5
0.5
0.5
0.5
0.5
0.5
0.5
0.5
0.5
0.5
0.5
0.5
0.5
0.5
0.5
0.5
0.5
0.5
0.5
0.5
0.5
0.5
0.5
0.5
0.5
0.5
0.5
0.5
0.5
0.45
0.5
0.5
0.5
0.5
0.5
0.5
0.5
0.5
0.5
0.5
0.5
0.5
0.5
0.5
0.5
0.5
0.5
0.5
0.5
0.5
0.5
0.5
0.5
0.5
0.5
0.5
0.5
0.5
0.5
0.5
0.5
0.5
0.5
0.5
0.5
0.5
0.5
0.5
0.5
0.5
0.5
0.5
0.5
0.5
0.5
0.5
0.5
0.5
0.5
0.5
0.5
0.5
0.5
0.5
0.5
0.5
0.5
0.5
0.5
0.5
0.5
0.5
0.5
0.5
0.5
0.5
0.5
0.5
0.5
0.5
0.5
0.5
0.5
0.5
0.5
0.5
0.5
0.5
0.5
0.5
0.5
0.5
0.5
0.5
0.5
0.5
0.5
0.5
0.5
0.5
0.5
0.5
0.5
0.5
0.5
0.5
0.5
0.5
0.5
0.5
0.5
0.5
0.5
0.55
0.5
0.5
0.5
0.5
0.5
0.5
0.5
0.5
0.5
0.5
0.5
0.5
0.5
0.5
0.5

SCALARS name double
LOOKUP_TABLE default
21
99
91
55
109
132
1
44
86
48
11
54
26
35
60
74
40
141
89
36
15
76
96
3
94
37
97
120
2
122
93
136
69
52
67
100
16
70
62
71
31
7
29
149
118
144
138
32
49
114
64
85
17
63
22
104
23
78
87
10
59
119
13
66
106
139
20
147
124
133
140
88
103
73
121
6
142
143
57
113
115
47
4
14
110
128
38
105
24
135
150
79
58
148
95
68
33
146
134
27
116
75
25
125
84
8
46
107
5
61
123
50
0
145
39
98
80
12
42
81
28
34
77
9
117
51
43
130
19
101
127
56
102
83
18
53
131
90
92
129
82
151
72
111
41
126
45
108
137
112
65
30

SCALARS interaction_phenotype double
LOOKUP_TABLE default
0
0
0
0
0
0
0
0
0
0
0
0
0
0
0
0
0
0
0
0
0
0
0
0
0
0
0
0
0
0
0
0
0
0
0
0
0
0
0
0
0
0
0
0
0
0
0
0
0
0
0
0
0
0
0
0
0
0
0
0
0
0
0
0
0
0
0
0
0
0
0
0
0
0
0
0
0
0
0
0
0
0
0
0
0
0
0
0
0
0
0
0
0
0
0
0
0
0
0
0
0
0
0
0
0
0
0
0
0
0
0
0
0
0
0
0
0
0
0
0
0
0
0
0
0
0
0
0
0
0
0
0
0
0
0
0
0
0
0
0
0
0
0
0
0
0
0
0
0
0
0
0

SCALARS vessel_interaction double
LOOKUP_TABLE default
0
0
0
0
0
0
0
0
0
0
0
0
0
0
0
0
0
0
0
0
0
0
0
0
0
0
0
0
0
0
0
0
0
0
0
0
0
0
0
0
0
0
0
0
0
0
0
0
0
0
0
0
0
0
0
0
0
0
0
0
0
0
0
0
0
0
0
0
0
0
0
0
0
0
0
0
0
0
0
0
0
0
0
0
0
0
0
0
0
0
0
0
0
0
0
0
0
0
0
0
0
0
0
0
0
0
0
0
0
0
0
0
0
0
0
0
0
0
0
0
0
0
0
0
0
0
0
0
0
0
0
0
0
0
0
0
0
0
0
0
0
0
0
0
0
0
0
0
0
0
0
0

SCALARS is_follower double
LOOKUP_TABLE default
1
1
1
1
1
1
1
1
1
1
1
1
1
1
1
1
1
1
1
1
1
1
1
1
1
1
1
1
1
1
1
1
1
1
1
1
1
1
1
1
1
1
1
1
1
1
1
1
1
1
1
1
1
1
1
1
1
1
1
1
1
1
1
1
1
1
1
1
1
1
1
1
1
1
1
1
1
1
1
1
1
1
1
1
1
1
1
1
1
1
1
1
1
1
1
1
1
1
1
1
1
1
1
1
1
1
1
1
1
1
1
1
1
1
1
1
1
1
1
1
1
1
1
1
1
1
1
1
1
1
1
1
1
1
1
1
1
1
1
1
1
1
1
1
1
1
1
1
1
1
1
1

SCALARS polarised double
LOOKUP_TABLE default
0
0
0
0
0
0
0
0
0
0
0
0
0
0
0
0
0
0
0
0
0
0
0
0
0
0
0
0
0
0
0
0
0
0
0
0
0
0
0
0
0
0
0
0
0
0
0
0
0
0
0
0
0
0
0
0
0
0
0
0
0
0
0
0
0
0
0
0
0
0
0
0
0
0
0
0
0
0
0
0
0
0
0
0
0
0
0
0
0
0
0
0
0
0
0
0
0
0
0
0
0
0
0
0
0
0
0
0
0
0
0
0
0
0
0
0
0
0
0
0
0
0
0
0
0
0
0
0
0
0
0
0
0
0
0
0
0
0
0
0
0
0
0
0
0
0
0
0
0
0
0
0

