# vtk DataFile Version 2.0
Unstructured grid legacy vtk file with point scalar data
ASCII

DATASET UNSTRUCTURED_GRID
POINTS 6 double
90.9905 97.7409 107.353
96.0393 95.1669 100.343
95.4233 103.441 98.1492
102.566 100.541 102.32
98.5032 101.599 109.469
105.926 99.7393 94.5937

POINT_DATA 6
SCALARS radius double
LOOKUP_TABLE default
5.03728
5.08666
5.02287
5.02287
5.03728
5.02287

SCALARS status double
LOOKUP_TABLE default
1
1
1
1
1
1

SCALARS concentration double
LOOKUP_TABLE default
38.9575
38.9575
38.9575
38.9575
38.9575
38.9575

SCALARS fibres double
LOOKUP_TABLE default
0
0
0
0
0
0

SCALARS phenot double
LOOKUP_TABLE default
7
7
7
7
7
7

SCALARS cont_pheno double
LOOKUP_TABLE default
0.5
0.5
0.5
0.5
0.5
0.5

SCALARS name double
LOOKUP_TABLE default
1
3
2
0
4
5

SCALARS interaction_phenotype double
LOOKUP_TABLE default
0
0
0
0
0
0

SCALARS vessel_interaction double
LOOKUP_TABLE default
0
0
0
0
0
0

SCALARS is_follower double
LOOKUP_TABLE default
1
1
1
1
1
1

SCALARS polarised double
LOOKUP_TABLE default
0
0
0
0
0
0

