# vtk DataFile Version 2.0
Unstructured grid legacy vtk file with point scalar data
ASCII

DATASET UNSTRUCTURED_GRID
POINTS 27 double
74.7425 109.758 100.865
82.3446 105.31 100.354
77.8986 105.547 106.797
94.7465 101.049 94.1856
89.9586 103.386 100.648
91.229 97.1552 109.221
97.7079 93.67 96.5037
102.796 93.71 102.652
102.388 101.254 97.7817
96.8399 99.4966 103.222
98.8764 103.042 110.53
103.769 98.5026 115.518
97.8108 103.678 119.23
96.3389 108.12 89.2527
97.0036 107.497 98.7683
103.311 105.216 104.513
100.72 111.479 113.431
97.2771 110.343 106.181
99.4197 117.435 103.429
100.543 115.884 95.755
109.488 99.2952 94.1944
107.454 101.939 86.3756
105.915 97.854 107.852
108.483 104.593 110.709
105.071 109.567 98.1466
106.516 112.219 106.252
108.706 108.12 118.258

POINT_DATA 27
SCALARS radius double
LOOKUP_TABLE default
4.77271
5.0053
4.77271
5.09809
5.04636
5.03728
5.03728
5.0053
5.08666
5.03728
5.0053
5.04636
5.04636
5.08666
5.09809
5.0053
5.07271
5.07271
5.07271
5.07271
5.08666
5.08666
5.0053
5.0053
5.03728
5.03728
5.0053

SCALARS status double
LOOKUP_TABLE default
1
1
1
1
1
1
1
1
1
1
1
1
1
1
1
1
1
1
1
1
1
1
1
1
1
1
1

SCALARS concentration double
LOOKUP_TABLE default
38.9575
38.9575
38.9575
38.9575
38.9575
38.9575
38.9575
38.9575
38.9575
38.9575
38.9575
38.9575
38.9575
38.9575
38.9575
38.9575
38.9575
38.9575
38.9575
38.9575
38.9575
38.9575
38.9575
38.9575
38.9575
38.9575
38.9575

SCALARS fibres double
LOOKUP_TABLE default
0
0
0
0
0
0
0
0
0
0
0
0
0
0
0
0
0
0
0
0
0
0
0
0
0
0
0

SCALARS phenot double
LOOKUP_TABLE default
7
7
7
7
7
7
7
7
7
7
7
7
7
7
7
7
7
7
7
7
7
7
7
7
7
7
7

SCALARS cont_pheno double
LOOKUP_TABLE default
0.5
0.5
0.5
0.5
0.5
0.5
0.5
0.5
0.5
0.5
0.5
0.5
0.5
0.5
0.5
0.5
0.5
0.5
0.5
0.5
0.5
0.5
0.5
0.5
0.5
0.5
0.5

SCALARS name double
LOOKUP_TABLE default
21
15
26
2
11
1
3
23
0
10
4
13
16
6
7
20
14
22
17
24
5
25
8
12
9
18
19

SCALARS interaction_phenotype double
LOOKUP_TABLE default
0
0
0
0
0
0
0
0
0
0
0
0
0
0
0
0
0
0
0
0
0
0
0
0
0
0
0

SCALARS vessel_interaction double
LOOKUP_TABLE default
0
0
0
0
0
0
0
0
0
0
0
0
0
0
0
0
0
0
0
0
0
0
0
0
0
0
0

SCALARS is_follower double
LOOKUP_TABLE default
1
1
1
1
1
1
1
1
1
1
1
1
1
1
1
1
1
1
1
1
1
1
1
1
1
1
1

SCALARS polarised double
LOOKUP_TABLE default
0
0
0
0
0
0
0
0
0
0
0
0
0
0
0
0
0
0
0
0
0
0
0
0
0
0
0

