# vtk DataFile Version 2.0
Unstructured grid legacy vtk file with point scalar data
ASCII

DATASET UNSTRUCTURED_GRID
POINTS 9 double
92.5323 102.797 96.7473
90.5189 97.2343 106.916
95.2888 104.184 104.288
96.4759 96.5737 100.903
103.642 101.069 101.403
100.031 103.213 112.33
101.759 100.294 107.303
96.0317 105.797 89.189
107.561 100.306 94.6593

POINT_DATA 9
SCALARS radius double
LOOKUP_TABLE default
5.03728
5.03728
5.03728
5.08666
5.02287
4.39809
4.39809
5.08666
5.02287

SCALARS status double
LOOKUP_TABLE default
1
1
1
1
1
1
1
1
1

SCALARS concentration double
LOOKUP_TABLE default
38.9575
38.9575
38.9575
38.9575
38.9575
38.9575
38.9575
38.9575
38.9575

SCALARS fibres double
LOOKUP_TABLE default
0
0
0
0
0
0
0
0
0

SCALARS phenot double
LOOKUP_TABLE default
7
7
7
7
7
7
7
7
7

SCALARS cont_pheno double
LOOKUP_TABLE default
0.5
0.5
0.5
0.5
0.5
0.5
0.5
0.5
0.5

SCALARS name double
LOOKUP_TABLE default
2
1
7
3
0
4
8
6
5

SCALARS interaction_phenotype double
LOOKUP_TABLE default
0
0
0
0
0
0
0
0
0

SCALARS vessel_interaction double
LOOKUP_TABLE default
0
0
0
0
0
0
0
0
0

SCALARS is_follower double
LOOKUP_TABLE default
1
1
1
1
1
1
1
1
1

SCALARS polarised double
LOOKUP_TABLE default
0
0
0
0
0
0
0
0
0

