# vtk DataFile Version 2.0
Unstructured grid legacy vtk file with point scalar data
ASCII

DATASET UNSTRUCTURED_GRID
POINTS 243 double
66.6849 99.3729 103.038
65.8851 108.457 94.8388
64.7494 113.824 101.317
64.9249 106.538 105.471
65.0935 116.688 92.7046
75.6251 99.421 90.7263
73.2611 98.9227 99.0739
69.7909 104.153 99.8199
73.5543 102.589 106.621
75.5973 104.39 114.861
75.6124 114.236 79.2355
73.8019 107.246 92.8796
72.0809 113.485 87.9966
72.026 108.73 100.971
69.5174 108.338 111.319
75.6347 112.848 114.359
68.6785 107.413 119.464
71.9579 114.455 97.0854
81.9306 89.3331 101.894
79.6161 95.2449 96.9693
82.8086 91.8312 110.339
76.4113 94.7706 105.533
78.2828 92.989 117.434
82.1217 91.9459 125.023
83.0643 95.3891 90.3169
81.0095 104.222 94.0262
83.46 98.9685 101.694
80.2813 103.858 105.402
83.5318 103.32 113.741
84.5363 97.9336 120.252
76.3754 99.9771 121.557
81.292 99.8498 128.31
82.9046 111.19 80.363
79.996 110.281 88.5342
77.7701 105.102 100.114
80.0794 112.193 98.3143
85.6213 106.857 101.721
83.6102 111.527 111.298
77.0651 110.337 106.602
84.2235 107.102 120.606
82.265 119.405 83.3308
78.2723 117.319 92.0284
84.5473 118.905 95.8447
85.2919 114.824 103.521
80.3006 119.176 113.107
84.3216 118.412 109.01
81.3381 115.275 119.427
83.4936 123.978 105.141
94.2138 85.3417 93.6036
92.0997 85.5806 101.478
85.9952 84.5442 106.871
95.0632 92.9108 83.5565
87.0932 93.4448 82.5904
88.259 91.3736 95.9578
88.8766 92.8471 104.542
89.9487 88.6402 110.414
94.7356 89.1062 114.532
87.0319 90.0448 118.045
92.3851 95.1905 123.278
89.7907 98.6345 79.2034
90.101 97.5906 87.9751
93.182 104.699 90.2565
93.8058 96.6864 95.4221
87.8555 100.821 95.6702
91.9672 100.463 102.711
86.1817 100.032 107.917
89.9949 95.6505 113.066
94.5577 101.425 107.475
91.238 102.389 117.887
89.0578 102.153 126.137
91.9059 104.546 133.985
89.3644 108.502 66.6522
91.4217 112.554 73.3245
89.3562 106.047 81.6246
95.2229 110.704 85.3206
87.6101 113.178 87.6553
94.4726 112.594 93.2366
87.1408 108.386 93.1628
93.0823 107.368 99.0123
89.0145 113.487 97.8007
94.5584 113.948 102.85
89.9632 106.813 109.144
91.7993 109.02 123.015
88.8939 120.422 73.1476
89.7817 115.708 80.7498
88.4808 121.383 89.0665
92.8562 120.174 96.3966
90.7698 120.509 104.888
89.196 122.392 111.992
88.6396 115.197 116.251
94.9715 115.562 120.299
89.5434 124.262 81.2635
94.506 126.261 90.5001
90.7669 127.967 97.6307
99.0635 84.1034 87.2105
100.757 85.0384 99.8467
103.638 80.9361 98.8705
102.454 78.4967 105.07
100.99 78.4052 113.311
98.0263 85.3437 107.814
100.936 91.9862 78.4218
100.091 90.7459 88.8597
104.652 93.9281 98.5748
97.1001 90.7344 98.3845
103.636 91.0761 105.167
102.189 89.7966 113.381
96.3185 93.5642 108.395
98.4661 89.1277 122.828
104.243 94.708 122.922
102.56 100.712 77.5063
96.003 101.438 82.7663
104.332 98.2461 85.1945
98.1449 98.425 89.4823
98.1928 96.8048 101.839
104.341 100.629 102.998
98.5305 102.395 96.479
95.4766 100.765 111.89
101.899 104.026 113.028
103.671 97.1008 110.783
97.9128 96.1122 117.389
98.8477 104.446 121.117
98.4372 102.228 129.682
104.687 114.032 64.3986
98.3028 110.876 69.6056
104.061 109.105 75.099
95.9305 106.055 76.1522
101.461 107.094 82.4859
98.0062 113.488 78.2728
100.656 108.109 91.3177
102.015 108.082 100.164
97.2671 106.312 105.894
101.848 110.768 108.617
95.4673 108.822 114.933
104.662 110.383 116.69
102.361 109.306 131.353
104.772 108.797 124.377
97.1198 119.173 72.6923
103.165 117.62 84.0729
95.9069 118.305 88.1192
101.623 118.314 92.7563
100.109 115.343 98.4204
100.307 118.729 105.571
95.6306 116.361 111.615
104.599 117.108 111.853
96.0569 123.139 117.35
101.805 117.722 118.637
99.5646 115.579 126.929
102.978 122.949 124.916
98.5966 120.088 133.811
98.0776 124.226 82.8088
102.558 124.794 90.0261
96.7945 124.412 102.341
99.6632 129.111 96.5163
102.097 131.01 104.488
95.4163 126.897 110.061
104.193 124.578 109.541
101.798 131.707 113.25
104.301 125.612 132.804
105.984 80.6443 85.4372
106.276 77.4577 97.7691
108.357 84.2297 104.157
113.565 85.6063 97.3703
107.363 83.397 112.287
104.905 94.4278 91.6314
105.941 86.0248 90.8723
108.623 90.3857 85.9114
111.637 92.4153 93.8439
106.659 86.7713 96.7849
110.162 90.7333 109.963
106.492 87.2082 120.184
110.092 94.0778 117.321
109.372 94.166 129.946
108.838 95.3639 78.5566
110.089 104.178 78.2383
112.725 97.8732 87.1283
106.591 103.062 94.6078
111.267 96.0433 102.717
111.52 98.7242 110.966
107.083 102.088 119.668
105.963 101.209 127.463
114.025 101.691 126.75
105.227 102.755 135.392
109.076 105.096 69.8647
108.264 111.799 82.4376
108.138 104.997 86.8266
113.95 108.528 91.4054
106.597 112.75 89.7851
109.582 110.487 97.6491
113.673 112.584 105.092
110.647 106.218 113.365
107.931 107.038 105.543
112.463 108.489 121.435
111.307 107.926 132.165
105.758 111.393 138.134
107.114 116.867 76.0617
111.117 118.744 85.8894
108.893 118.367 94.0487
104.983 123.251 100.055
106.562 115.001 102.761
113.223 119.62 99.9206
111.079 119.676 108.099
111.605 114.388 115.122
109.185 122.277 116.099
107.915 116.237 122.553
113.28 114.953 128.084
106.071 117.684 131.505
106.468 126.159 83.8561
110.681 125.99 91.0379
107.511 130.333 95.8968
107.802 130.656 101.309
111.35 126.801 104.9
118.139 93.0541 98.1711
115.853 88.7826 104.814
118.22 94.2695 113.721
115.479 93.7964 124.358
119.257 97.3274 81.8444
120.357 95.3662 90.3736
114.449 99.9747 95.1611
121.706 100.306 100.091
118.502 100.39 107.367
115.43 100.839 118.662
116.186 108.96 71.7435
114.784 111.698 78.7392
115.978 105.143 83.9455
121.857 105.893 77.7165
120.843 111.028 87.6918
120.806 105.627 94.4981
114.586 105.154 101.217
117.916 112.5 98.2435
121.507 107.927 104.849
119.368 106.143 113.523
118.649 113.363 110.361
119.397 113.078 118.663
119.173 108.973 126.852
117.794 112.926 133.646
117.36 113.363 140.209
116.803 117.101 91.7981
119.04 119.556 105.329
115.675 119.615 121.341
122.815 121.234 117.69
123.573 116.268 124.815
118.293 124.632 94.5884
125.652 115.075 112.99

POINT_DATA 243
SCALARS radius double
LOOKUP_TABLE default
5.03939
5.03939
5.08931
5.03939
5.08931
5.07271
5.03939
4.13939
5.03939
5.03939
5.07271
5.03939
5.08931
4.23939
5.09976
5.03939
5.09976
5.03939
5.0053
5.07271
5.02621
5.0053
5.02621
5.0053
5.07271
5.08931
5.02621
4.29976
5.08931
5.07271
5.03939
5.07271
5.08931
5.04636
4.29976
5.02621
5.07271
5.08931
5.02621
5.08931
5.02621
5.03939
5.0053
5.0053
4.29976
4.29976
5.08931
5.0053
5.09809
5.07271
5.0053
5.04636
4.37271
5.0053
5.0053
4.48931
4.48931
5.07271
5.03939
4.47271
5.0053
5.0053
5.03939
5.07271
5.09976
5.02621
5.0053
3.99976
5.08931
5.03939
5.08931
5.07271
5.0053
5.04636
5.08654
5.02272
5.07271
5.07271
5.07271
4.9053
5.03939
5.09976
5.07271
5.02621
5.08931
5.03939
5.03939
5.03939
5.03939
5.08931
5.03939
5.02621
5.03939
5.03939
5.08931
5.0053
4.03939
5.03939
5.03939
5.07271
5.04636
4.92621
5.07271
5.0053
5.09809
5.02621
5.03939
5.0053
5.02621
5.04636
5.04636
5.09809
5.03939
5.0053
5.08931
5.08931
4.09976
5.03939
5.07271
5.03939
5.08931
5.08931
5.02621
5.02621
5.0053
5.0053
5.09809
5.08654
5.0053
5.0053
5.02621
5.08931
5.02621
5.08931
5.03939
5.03939
5.07271
5.03939
5.06831
5.04768
5.04768
5.03939
5.08931
5.08931
5.08931
5.08931
5.03939
5.04768
5.00635
5.09976
5.02621
5.03939
5.03939
5.07271
5.03939
5.07271
5.03939
5.00635
5.08931
4.13939
5.03939
5.03939
5.02621
4.92621
4.29976
5.09809
5.09809
4.29976
5.02621
5.07271
5.08931
5.07271
5.04636
5.02621
5.09809
5.09809
5.07271
5.08931
5.03939
5.07271
5.08931
5.04768
5.07271
5.08931
5.02621
5.0053
5.02621
5.07271
5.02621
5.09976
5.02621
5.08931
5.04768
5.04768
5.03939
5.03939
5.02621
5.08931
5.03939
5.08931
5.08931
5.02621
5.0053
5.08931
5.04768
5.04768
5.09976
5.08931
4.18931
4.28931
5.07271
5.03728
5.03939
5.08931
5.07271
5.07271
5.09809
5.04636
5.04636
5.08931
5.03939
5.04636
5.08931
5.07271
5.04636
5.0053
5.04636
5.07271
5.07271
5.04768
5.04768
5.02621
5.03939
5.08931
4.50635
4.60635
5.02621
5.07271
5.03939
5.03939
5.03939
5.08931
5.02621

SCALARS status double
LOOKUP_TABLE default
1
1
1
1
1
1
1
1
1
1
1
1
1
1
1
1
1
1
1
1
1
1
1
1
1
1
1
1
1
1
1
1
1
1
1
1
1
1
1
1
1
1
1
1
1
1
1
1
1
1
1
1
1
1
2
1
1
1
1
1
1
1
1
1
1
1
2
1
1
1
1
1
1
1
1
1
1
1
1
1
1
1
1
1
1
1
1
1
1
1
1
1
1
1
1
1
1
1
1
1
1
1
1
1
1
1
1
1
1
1
1
1
1
1
1
1
1
1
1
1
1
1
1
1
1
1
1
1
1
1
1
1
1
1
1
1
1
1
1
1
1
1
1
1
1
1
1
1
1
1
1
1
1
1
1
1
1
1
1
1
1
1
1
1
1
1
1
1
1
1
1
1
1
1
1
1
1
1
1
1
1
1
1
1
1
1
1
1
1
1
1
1
1
1
1
1
1
1
1
1
1
1
1
1
1
1
1
1
1
1
1
1
1
1
1
1
1
1
1
1
1
1
1
1
1
1
1
1
1
1
1
1
1
1
1
1
1
1
1
1
1
1
1

SCALARS concentration double
LOOKUP_TABLE default
33.6655
35.1842
34.4128
34.7652
34.86
35.0223
36.4153
35.0611
35.4016
35.3189
38.3969
35.1842
35.1842
35.0611
34.7652
36.4044
34.7652
36.6135
35.6299
36.1108
35.0071
35.6299
35.0071
34.7393
36.1108
36.4153
37.2165
36.4153
37.6381
35.8637
35.3189
35.8637
38.3969
37.9921
36.4153
36.9403
38.09
38.0035
36.9403
37.4803
38.3969
36.6135
38.2926
39.5437
38.2658
38.2658
38.0035
39.0578
35.5803
36.5692
35.1196
37.9313
36.5237
36.3559
36.6892
38.1319
38.1319
35.9857
37.5292
36.5237
36.5237
38.9275
38.5913
37.5849
38.2641
37.2165
36.6892
37.8005
37.8005
37.5292
37.9769
39.3081
38.7479
38.7088
41.2466
41.2466
38.9275
38.09
38.9275
38.2926
40.3223
38.2641
39.2266
40.7712
38.3969
40.0877
40.4274
40.0073
40.0073
40.0073
41.0738
40.7712
42.2639
42.2639
36.8527
37.319
36.3726
36.3726
36.3726
36.5692
37.9313
37.319
37.319
37.4989
38.1804
38.1319
38.2641
37.5493
40.1002
39.1766
38.4807
40.4254
38.5913
37.4989
39.6258
38.5913
37.8005
37.8005
40.2067
38.8638
38.9067
38.9213
41.7097
41.7097
41.4161
39.4678
40.8589
41.2466
40.834
40.834
39.2791
41.5773
39.2791
40.1952
41.4952
41.4952
40.7712
42.8912
41.2466
41.2466
41.2466
43.3481
41.2339
42.7336
42.5431
42.7336
41.0738
43.1466
43.1466
43.53
44.128
41.7013
43.6386
45.6046
42.9547
44.0719
42.9547
43.1466
36.8527
36.3726
37.9308
37.889
36.7162
37.319
37.889
38.7939
39.3469
37.889
39.348
38.1336
40.1002
39.973
39.391
41.4361
40.9289
41.6302
39.9137
40.1002
40.3782
39.973
42.2831
42.393
42.1442
43.5179
41.4361
43.2416
43.255
43.5434
43.3296
42.5379
43.3296
42.2831
42.393
43.1466
44.2816
46.1285
44.128
43.3481
43.3481
44.8147
44.8147
44.8147
45.7648
43.6875
44.3397
43.1466
46.2952
46.3949
46.3146
46.3146
46.6918
41.0433
37.9308
41.2407
40.1002
43.2328
40.9289
41.6302
43.081
41.7636
42.0702
44.655
43.5179
43.2328
44.655
43.2416
41.6302
43.3296
46.4606
44.0709
44.0709
46.8938
45.4864
45.3167
44.3397
44.3397
46.3949
46.8938
46.3666
48.8627
48.8627
46.3949
46.8938

SCALARS fibres double
LOOKUP_TABLE default
0
0
0
0
0
0
0
0
0
0
0
0
0
0
0
0
0
0
0
0
0
0
0
0
0
0
0
0
0
0
0
0
0
0
0
0
0
0
0
0
0
0
0
0
0
0
0
0
0
0
0
0
0
0
0
0
0
0
0
0
0
0
0
0
0
0
0
0
0
0
0
0
0
0
0
0
0
0
0
0
0
0
0
0
0
0
0
0
0
0
0
0
0
0
0
0
0
0
0
0
0
0
0
0
0
0
0
0
0
0
0
0
0
0
0
0
0
0
0
0
0
0
0
0
0
0
0
0
0
0
0
0
0
0
0
0
0
0
0
0
0
0
0
0
0
0
0
0
0
0
0
0
0
0
0
0
0
0
0
0
0
0
0
0
0
0
0
0
0
0
0
0
0
0
0
0
0
0
0
0
0
0
0
0
0
0
0
0
0
0
0
0
0
0
0
0
0
0
0
0
0
0
0
0
0
0
0
0
0
0
0
0
0
0
0
0
0
0
0
0
0
0
0
0
0
0
0
0
0
0
0
0
0
0
0
0
0
0
0
0
0
0
0

SCALARS phenot double
LOOKUP_TABLE default
7
7
7
7
7
7
7
7
7
7
7
7
7
7
7
7
7
7
7
7
7
7
7
7
7
7
7
7
7
7
7
7
7
7
7
7
7
7
7
7
7
7
7
7
7
7
7
7
7
7
7
7
7
7
7
7
7
7
7
7
7
7
7
7
7
7
7
7
7
7
7
7
7
7
7
7
7
7
7
7
7
7
7
7
7
7
7
7
7
7
7
7
7
7
7
7
7
7
7
7
7
7
7
7
7
7
7
7
7
7
7
7
7
7
7
7
7
7
7
7
7
7
7
7
7
7
7
7
7
7
7
7
7
7
7
7
7
7
7
7
7
7
7
7
7
7
7
7
7
7
7
7
7
7
7
7
7
7
7
7
7
7
7
7
7
7
7
7
7
7
7
7
7
7
7
7
7
7
7
7
7
7
7
7
7
7
7
7
7
7
7
7
7
7
7
7
7
7
7
7
7
7
7
7
7
7
7
7
7
7
7
7
7
7
7
7
7
7
7
7
7
7
7
7
7
7
7
7
7
7
7
7
7
7
7
7
7
7
7
7
7
7
7

SCALARS cont_pheno double
LOOKUP_TABLE default
0.5
0.5
0.5
0.5
0.5
0.5
0.5
0.5
0.5
0.5
0.5
0.5
0.5
0.5
0.5
0.5
0.5
0.5
0.5
0.5
0.5
0.5
0.5
0.5
0.5
0.5
0.5
0.5
0.5
0.5
0.5
0.5
0.5
0.5
0.5
0.5
0.5
0.5
0.5
0.5
0.5
0.5
0.5
0.5
0.5
0.5
0.5
0.5
0.5
0.5
0.5
0.5
0.5
0.5
0.45
0.5
0.5
0.5
0.5
0.5
0.5
0.5
0.5
0.5
0.5
0.5
0.45
0.5
0.5
0.5
0.5
0.5
0.5
0.5
0.5
0.5
0.5
0.5
0.5
0.5
0.5
0.5
0.5
0.5
0.5
0.5
0.5
0.5
0.5
0.5
0.5
0.5
0.5
0.5
0.5
0.5
0.5
0.5
0.5
0.5
0.5
0.5
0.5
0.5
0.5
0.5
0.5
0.5
0.5
0.5
0.5
0.5
0.5
0.5
0.5
0.5
0.5
0.5
0.5
0.5
0.5
0.5
0.5
0.5
0.5
0.5
0.5
0.5
0.5
0.5
0.5
0.5
0.5
0.5
0.5
0.5
0.5
0.5
0.5
0.5
0.5
0.5
0.5
0.5
0.5
0.5
0.5
0.5
0.5
0.5
0.5
0.5
0.5
0.5
0.5
0.5
0.5
0.5
0.5
0.5
0.5
0.5
0.5
0.5
0.5
0.5
0.5
0.5
0.5
0.5
0.5
0.5
0.5
0.5
0.5
0.5
0.5
0.5
0.5
0.5
0.5
0.5
0.5
0.5
0.5
0.5
0.5
0.5
0.5
0.5
0.5
0.5
0.5
0.5
0.5
0.5
0.5
0.5
0.5
0.5
0.5
0.5
0.5
0.5
0.5
0.5
0.5
0.5
0.5
0.5
0.5
0.5
0.5
0.5
0.5
0.5
0.5
0.5
0.5
0.5
0.5
0.5
0.5
0.5
0.5
0.5
0.5
0.5
0.5
0.5
0.5
0.5
0.5
0.5
0.5
0.5
0.5
0.5
0.55
0.5
0.5
0.5
0.5

SCALARS name double
LOOKUP_TABLE default
91
219
21
180
99
48
218
240
54
26
169
55
188
109
222
40
132
15
1
11
159
152
44
86
196
74
136
236
52
35
197
175
198
31
201
60
29
118
200
138
89
214
36
63
76
237
141
96
3
37
97
78
235
94
165
234
168
120
190
212
122
7
220
93
154
224
69
241
67
100
16
70
62
71
208
163
149
204
211
231
115
177
32
199
182
114
85
225
166
22
207
156
64
167
23
87
242
183
228
194
192
170
205
229
10
119
124
13
189
66
2
61
106
139
20
147
178
158
39
133
140
88
103
160
121
73
6
150
142
113
4
47
144
110
128
213
49
24
57
226
143
148
95
14
33
216
38
146
230
135
79
17
134
27
116
68
191
171
217
104
84
195
59
232
125
25
123
238
8
46
153
227
75
107
5
145
50
206
80
28
42
19
34
77
157
9
117
51
172
130
210
161
186
181
101
127
209
58
215
187
83
162
18
53
185
105
90
56
92
239
102
129
202
111
12
151
155
0
72
98
81
41
223
82
176
203
184
43
112
126
164
193
45
108
137
233
173
65
131
30
174
221
179

SCALARS interaction_phenotype double
LOOKUP_TABLE default
0
0
0
0
0
0
0
0
0
0
0
0
0
0
0
0
0
0
0
0
0
0
0
0
0
0
0
0
0
0
0
0
0
0
0
0
0
0
0
0
0
0
0
0
0
0
0
0
0
0
0
0
0
0
0
0
0
0
0
0
0
0
0
0
0
0
0
0
0
0
0
0
0
0
0
0
0
0
0
0
0
0
0
0
0
0
0
0
0
0
0
0
0
0
0
0
0
0
0
0
0
0
0
0
0
0
0
0
0
0
0
0
0
0
0
0
0
0
0
0
0
0
0
0
0
0
0
0
0
0
0
0
0
0
0
0
0
0
0
0
0
0
0
0
0
0
0
0
0
0
0
0
0
0
0
0
0
0
0
0
0
0
0
0
0
0
0
0
0
0
0
0
0
0
0
0
0
0
0
0
0
0
0
0
0
0
0
0
0
0
0
0
0
0
0
0
0
0
0
0
0
0
0
0
0
0
0
0
0
0
0
0
0
0
0
0
0
0
0
0
0
0
0
0
0
0
0
0
0
0
0
0
0
0
0
0
0
0
0
0
0
0
0

SCALARS vessel_interaction double
LOOKUP_TABLE default
0
0
0
0
0
0
0
0
0
0
0
0
0
0
0
0
0
0
0
0
0
0
0
0
0
0
0
0
0
0
0
0
0
0
0
0
0
0
0
0
0
0
0
0
0
0
0
0
0
0
0
0
0
0
0
0
0
0
0
0
0
0
0
0
0
0
0
0
0
0
0
0
0
0
0
0
0
0
0
0
0
0
0
0
0
0
0
0
0
0
0
0
0
0
0
0
0
0
0
0
0
0
0
0
0
0
0
0
0
0
0
0
0
0
0
0
0
0
0
0
0
0
0
0
0
0
0
0
0
0
0
0
0
0
0
0
0
0
0
0
0
0
0
0
0
0
0
0
0
0
0
0
0
0
0
0
0
0
0
0
0
0
0
0
0
0
0
0
0
0
0
0
0
0
0
0
0
0
0
0
0
0
0
0
0
0
0
0
0
0
0
0
0
0
0
0
0
0
0
0
0
0
0
0
0
0
0
0
0
0
0
0
0
0
0
0
0
0
0
0
0
0
0
0
0
0
0
0
0
0
0
0
0
0
0
0
0
0
0
0
0
0
0

SCALARS is_follower double
LOOKUP_TABLE default
1
1
1
1
1
1
1
1
1
1
1
1
1
1
1
1
1
1
1
1
1
1
1
1
1
1
1
1
1
1
1
1
1
1
1
1
1
1
1
1
1
1
1
1
1
1
1
1
1
1
1
1
1
1
1
1
1
1
1
1
1
1
1
1
1
1
1
1
1
1
1
1
1
1
1
1
1
1
1
1
1
1
1
1
1
1
1
1
1
1
1
1
1
1
1
1
1
1
1
1
1
1
1
1
1
1
1
1
1
1
1
1
1
1
1
1
1
1
1
1
1
1
1
1
1
1
1
1
1
1
1
1
1
1
1
1
1
1
1
1
1
1
1
1
1
1
1
1
1
1
1
1
1
1
1
1
1
1
1
1
1
1
1
1
1
1
1
1
1
1
1
1
1
1
1
1
1
1
1
1
1
1
1
1
1
1
1
1
1
1
1
1
1
1
1
1
1
1
1
1
1
1
1
1
1
1
1
1
1
1
1
1
1
1
1
1
1
1
1
1
1
1
1
1
1
1
1
1
1
1
1
1
1
1
1
1
1
1
1
1
1
1
1

SCALARS polarised double
LOOKUP_TABLE default
0
0
0
0
0
0
0
0
0
0
0
0
0
0
0
0
0
0
0
0
0
0
0
0
0
0
0
0
0
0
0
0
0
0
0
0
0
0
0
0
0
0
0
0
0
0
0
0
0
0
0
0
0
0
0
0
0
0
0
0
0
0
0
0
0
0
0
0
0
0
0
0
0
0
0
0
0
0
0
0
0
0
0
0
0
0
0
0
0
0
0
0
0
0
0
0
0
0
0
0
0
0
0
0
0
0
0
0
0
0
0
0
0
0
0
0
0
0
0
0
0
0
0
0
0
0
0
0
0
0
0
0
0
0
0
0
0
0
0
0
0
0
0
0
0
0
0
0
0
0
0
0
0
0
0
0
0
0
0
0
0
0
0
0
0
0
0
0
0
0
0
0
0
0
0
0
0
0
0
0
0
0
0
0
0
0
0
0
0
0
0
0
0
0
0
0
0
0
0
0
0
0
0
0
0
0
0
0
0
0
0
0
0
0
0
0
0
0
0
0
0
0
0
0
0
0
0
0
0
0
0
0
0
0
0
0
0
0
0
0
0
0
0

