# vtk DataFile Version 2.0
Unstructured grid legacy vtk file with point scalar data
ASCII

DATASET UNSTRUCTURED_GRID
POINTS 252 double
65.8353 98.7159 103.408
65.702 108.512 94.6771
65.0335 114.123 101.323
65.0211 106.937 105.365
65.1045 116.755 92.9405
75.6314 99.1183 90.4897
73.3882 98.2128 99.0833
69.3264 104.088 99.4173
72.6713 102.748 106.43
75.5014 104.461 114.617
75.1448 114.22 79.3624
73.6108 107.243 93.5066
71.9585 113.653 87.9561
71.8374 109.642 101.502
69.3608 108.411 111.593
73.183 110.672 107.795
75.5 113.002 114.347
68.7836 107.507 119.816
72.3415 114.88 96.4944
85.1948 84.0991 106.533
81.6263 91.7598 95.2745
81.6029 89.5471 101.984
78.7203 95.2833 97.2941
82.909 92.0985 110.35
76.4339 94.8794 105.418
78.326 92.4146 117.651
82.2976 91.4949 125.333
83.0929 95.6602 89.8194
81.157 103.864 94.1619
83.1624 98.3721 101.28
80.3383 103.921 106.785
83.5287 103.103 113.953
84.6477 97.8875 120.189
76.4128 99.9234 121.622
81.4256 99.5449 128.087
82.8849 111.333 80.4296
79.9022 109.957 88.564
77.1925 104.874 100.469
79.9675 111.75 98.3216
85.4493 106.516 101.582
82.9238 111.185 111.667
77.558 110.416 106.402
83.8762 106.884 120.884
82.5007 119.301 83.4328
78.1535 117.853 91.4995
84.4598 119.742 96.5958
84.7878 114.495 103.824
79.8414 119.884 113.747
84.7321 118.503 109.354
81.2289 114.999 120.103
83.6497 124.149 104.397
94.3496 85.1546 93.318
91.9363 85.3928 101.719
94.8731 93.1567 82.831
86.3086 92.9209 82.4924
88.2216 91.064 96.3838
88.8621 93.042 104.397
90.0745 88.3019 110.288
94.9182 88.8084 115.945
86.8432 89.8957 118.218
92.3006 94.5573 122.572
89.4897 98.4867 78.8264
90.2486 97.4607 87.7231
93.1541 104.479 90.2564
93.5613 96.3385 95.0342
87.7797 100.699 95.2899
91.4686 100.785 101.796
86.5749 99.6844 107.998
89.8724 95.4577 113.633
94.3434 100.302 107.536
91.1586 102.212 118.579
87.7472 102.819 125.729
92.9594 99.8973 127.364
91.6731 104.439 133.893
89.4313 108.437 66.7033
91.6596 112.702 72.5579
89.1193 106.48 81.4542
94.9336 110.533 85.1305
90.0009 112.45 76.9087
87.6013 113.595 87.4092
94.6572 112.519 92.7109
87.1305 108.24 93.0831
93.3182 107.25 98.6118
88.6771 113.547 97.9163
94.4859 113.338 104.053
89.8081 106.803 109.329
91.8839 108.543 123.023
88.6567 120.661 73.4347
90.3897 116.347 80.7609
87.9279 121.497 89.3663
93.0775 120.142 96.2838
90.886 120.103 104.968
89.8004 122.94 112.384
88.4467 114.991 115.858
94.7288 115.718 120.54
89.6386 124.33 81.37
94.6224 126.485 90.5798
90.5251 128.28 97.5569
92.6653 126.467 106.595
98.9601 83.3902 86.5754
100.121 85.2546 100.39
103.893 80.6842 98.1464
102.461 78.4365 105.12
100.814 78.2227 113.5
97.7745 85.2815 108.166
101.337 92.0695 78.2703
99.1905 90.3616 89.0325
96.9475 90.9923 98.2211
104.796 94.0676 98.5745
103.424 90.5626 105.411
102.067 89.6997 113.539
96.2425 93.4912 109.053
98.682 88.8177 122.806
104.357 94.7837 123.072
102.355 101.05 77.0346
95.8971 101.432 82.7718
104.315 98.4755 84.3445
98.3275 98.5433 89.7582
98.1848 96.8835 102.297
104.7 100.715 102.881
98.7478 102.148 96.7009
95.5465 101.121 112.659
102.37 104.143 113.164
103.677 96.9158 110.519
98.1593 96.1964 117.376
99.0234 103.952 121.236
98.8251 102.276 130.071
104.648 114.298 64.6723
97.6464 111.123 69.3292
95.9481 106.075 75.8714
104.315 109.821 70.5538
104.113 108.893 76.1512
101.599 106.783 82.6852
97.983 113.349 78.2257
100.729 107.451 90.8152
102.61 108.27 100.037
97.3296 105.899 105.758
101.646 110.987 108.397
95.553 108.877 114.817
104.38 110.159 117.043
102.211 109.505 131.658
96.8748 119.262 72.7326
102.853 116.869 83.9974
103.14 121.649 85.2722
95.7717 118.466 87.3543
101.165 118.372 92.0554
100.127 115.491 98.7522
100.107 119.03 105.63
95.8059 116.584 112.007
96.0828 123.628 117.525
101.621 117.878 118.614
99.7092 115.529 126.821
102.944 123.028 124.884
98.5275 119.959 133.571
97.6542 124.827 82.7859
102.5 125.515 90.1974
97.2102 125.035 101.478
100.371 128.435 95.6914
97.7379 132.632 99.2076
101.878 131.271 105.281
96.3233 127.501 111.279
104.352 124.856 109.529
101.308 131.673 113.722
104.72 125.688 132.952
107.542 75.9027 97.1354
106.524 80.4384 85.0895
108.432 84.1958 104.01
114.123 84.9858 97.4189
107.382 83.5299 112.366
108.895 90.8309 85.4854
104.992 95.1329 91.6115
105.878 85.9235 90.5938
111.965 92.5223 93.7089
107.036 87.1353 97.4394
110.035 90.9609 109.939
106.334 87.1172 120.225
110.391 94.2044 117.256
109.722 94.0914 129.727
109.28 95.7048 78.4629
109.953 104.48 78.3894
112.688 97.7411 86.8196
106.568 102.851 94.4692
111.553 96.1568 102.709
111.622 98.5895 110.966
106.878 102.211 119.556
106.097 101.564 127.363
114.283 101.894 127.044
105.672 102.839 135.543
109.179 104.94 69.7807
108.057 111.769 82.3805
108.563 105.271 86.7243
114.249 108.833 91.2222
106.674 112.496 89.6643
109.913 110.716 97.4977
113.784 112.649 104.941
110.692 106.551 113.42
108.067 107.291 105.761
112.308 108.526 121.427
105.065 108.939 124.599
111.024 107.927 132.119
113.544 114.322 128.002
105.49 111.458 138.471
107.18 116.495 75.8248
110.781 118.875 85.9824
109.094 118.694 94.2059
105.142 123.176 100.084
106.608 115.321 102.916
113.426 119.625 100.104
104.832 117.077 111.766
111.619 119.677 108.434
112.032 114.563 115.186
109.337 122.154 116.342
108.438 116.615 122.484
106.322 117.496 131.667
113.796 121.203 125.588
106.837 126.543 83.1159
110.67 125.673 90.8786
106.751 130.637 94.8403
108.397 131.639 101.446
111.485 126.744 105.104
119.895 95.1098 90.5566
118.427 92.964 98.3518
116.178 88.5082 104.688
118.171 94.0285 113.524
115.804 93.8915 124.221
119.743 97.5288 81.607
114.861 100.084 95.1759
122.112 100.372 100.171
118.082 100.293 107.254
115.558 100.844 118.467
116.334 108.781 71.314
114.909 112.28 78.5523
116.46 105.259 84.0282
121.56 105.616 77.465
121.275 110.955 87.7488
120.999 105.738 94.5451
114.447 104.893 101.347
118.128 112.388 98.6292
121.597 107.778 105.124
119.457 105.999 113.409
118.701 113.525 110.578
119.352 112.824 118.887
119.243 108.628 126.628
118.212 112.715 133.672
117.314 113.027 140.953
116.857 116.947 91.8181
119.468 119.459 105.253
116.128 119.447 119.985
122.925 121 117.781
123.422 116.908 124.813
118.116 124.547 94.7109
126.148 114.762 113.247

POINT_DATA 252
SCALARS radius double
LOOKUP_TABLE default
5.03939
5.03939
5.08931
5.03939
5.08931
5.07271
5.03939
4.63939
5.03939
5.03939
5.07271
5.03939
5.08931
4.73939
5.09976
3.98931
5.03939
5.09976
5.03939
5.0053
4.22621
5.0053
4.32621
5.02621
5.0053
5.02621
5.0053
5.07271
5.08931
5.02621
4.79976
5.08931
5.07271
5.03939
5.07271
5.08931
5.04636
4.79976
5.02621
5.07271
5.08931
4.08931
5.08931
5.02621
5.03939
5.0053
5.0053
4.79976
4.79976
5.08931
5.0053
5.09809
5.07271
5.04636
4.87271
5.0053
5.0053
4.98931
4.98931
5.07271
5.03939
4.97271
5.0053
5.0053
5.03939
5.07271
5.09976
5.02621
5.0053
4.49976
5.08931
4.49976
4.49976
5.08931
5.07271
4.07271
5.04636
5.08654
4.07271
5.02272
5.07271
5.07271
5.07271
5.0053
5.03939
5.09976
5.07271
5.02621
5.08931
5.03939
5.03939
5.03939
5.03939
5.08931
5.03939
5.02621
5.03939
5.03939
4.29976
5.08931
5.0053
4.53939
5.03939
5.03939
5.07271
5.04636
5.02621
5.0053
5.07271
5.09809
5.02621
5.03939
5.0053
5.02621
5.04636
5.04636
5.09809
5.03939
5.0053
5.08931
5.08931
4.59976
5.03939
5.07271
5.03939
5.08931
5.08931
5.02621
5.02621
5.0053
4.47271
4.47271
5.09809
5.08654
5.0053
5.0053
5.02621
5.08931
5.02621
5.08931
5.03939
5.07271
4.19976
4.19976
5.06831
5.04768
5.04768
5.03939
5.08931
5.08931
5.08931
5.03939
5.04768
5.00635
5.09976
5.02621
5.03939
4.29976
4.39976
5.07271
4.39976
5.07271
5.03939
5.00635
4.63939
5.08931
5.03939
5.03939
5.02621
5.09809
5.02621
4.79976
5.09809
4.79976
5.02621
5.07271
5.08931
5.07271
5.04636
5.02621
5.09809
5.09809
5.07271
5.08931
5.03939
5.07271
5.08931
5.04768
5.07271
5.08931
5.02621
5.0053
5.02621
5.07271
5.02621
5.09976
5.02621
5.08931
5.03939
5.04768
5.04768
5.04768
5.03939
5.03939
5.02621
5.08931
5.03939
5.08931
5.08931
5.08931
5.02621
5.0053
5.08931
5.04768
4.39976
5.09976
5.08931
4.68931
4.78931
5.07271
5.09809
5.03728
5.03939
5.08931
5.07271
5.07271
5.04636
5.04636
5.08931
5.03939
5.04636
5.08931
5.07271
5.04636
5.0053
5.04636
5.07271
5.07271
5.04768
5.04768
5.02621
5.03939
5.08931
5.00635
5.00635
5.02621
5.07271
4.39976
5.03939
5.03939
5.08931
5.02621

SCALARS status double
LOOKUP_TABLE default
1
1
1
1
1
1
1
1
1
1
1
1
1
1
1
1
1
1
1
1
1
1
1
1
1
1
1
1
1
1
1
1
1
1
1
1
1
1
1
1
1
1
1
1
1
1
1
1
1
1
1
1
1
1
1
1
2
1
1
1
1
1
1
1
1
1
1
1
2
1
1
1
1
1
1
1
1
1
1
1
1
1
1
1
1
1
1
1
1
1
1
1
1
1
1
1
1
1
1
1
1
1
1
1
1
1
1
1
1
1
1
1
1
1
1
1
1
1
1
1
1
1
1
1
1
1
1
1
1
1
1
1
1
1
1
1
1
1
1
1
1
1
1
1
1
1
1
1
1
1
1
1
1
1
1
1
1
1
1
1
1
1
1
1
1
1
1
1
1
1
1
1
1
1
1
1
1
1
1
1
1
1
1
1
1
1
1
1
1
1
1
1
1
1
1
1
1
1
1
1
1
1
1
1
1
1
1
1
1
1
1
1
1
1
1
1
1
1
1
1
1
1
1
1
1
1
1
1
1
1
1
1
1
1
1
1
1
1
1
1
1
1
1
1
1
1
1
1
1
1
1
1

SCALARS concentration double
LOOKUP_TABLE default
33.6655
35.1842
34.4128
34.7652
34.86
35.0223
36.4153
35.0611
35.4016
35.3189
38.3969
35.1842
35.1842
35.0611
34.7652
36.9403
36.4044
34.7652
36.6135
35.1196
36.1108
35.6299
36.1108
35.0071
35.6299
35.0071
34.7393
36.1108
36.4153
37.2165
36.4153
37.6381
35.8637
35.3189
35.8637
38.3969
37.9921
36.4153
36.9403
38.09
38.0035
36.9403
37.4803
38.3969
36.6135
38.2926
39.5437
38.2658
38.2658
38.0035
39.0578
35.5803
36.5692
37.9313
36.5237
36.3559
36.6892
38.1319
38.1319
35.9857
37.5292
36.5237
36.5237
38.9275
38.5913
37.5849
38.2641
37.2165
36.6892
37.8005
37.8005
37.5292
37.5292
37.9769
39.3081
38.7479
38.7088
41.2466
38.7479
41.2466
38.9275
38.09
38.9275
38.2926
40.3223
38.2641
39.2266
40.7712
38.3969
40.0877
40.4274
40.0073
40.0073
40.0073
41.0738
40.7712
42.2639
42.2639
42.9547
36.8527
37.319
36.3726
36.3726
36.3726
36.5692
37.9313
37.319
37.4989
37.319
38.1804
38.1319
38.2641
37.5493
40.1002
39.1766
38.4807
40.4254
38.5913
37.4989
39.6258
38.5913
37.8005
37.8005
40.2067
38.8638
38.9067
38.9213
41.7097
41.7097
39.4678
41.4161
41.4161
40.8589
41.2466
40.834
40.834
39.2791
41.5773
39.2791
40.1952
41.4952
40.7712
42.8912
42.8912
41.2466
41.2466
41.2466
43.3481
41.2339
42.5431
42.7336
41.0738
43.1466
43.1466
43.53
44.128
41.7013
43.6386
43.6386
45.6046
42.9547
44.0719
42.9547
43.1466
36.3726
36.8527
37.9308
37.889
36.7162
38.7939
37.319
37.889
39.3469
37.889
39.348
38.1336
40.1002
39.973
39.391
41.4361
40.9289
41.6302
39.9137
40.1002
40.3782
39.973
42.2831
42.393
42.1442
43.5179
41.4361
43.2416
43.255
43.5434
43.3296
42.5379
43.3296
42.2831
41.4952
42.393
44.3397
43.1466
44.2816
46.1285
44.128
43.3481
43.3481
44.8147
42.7336
44.8147
44.8147
45.7648
43.6875
43.1466
46.3666
46.2952
46.3949
46.3146
46.3146
46.6918
40.9289
41.0433
37.9308
41.2407
40.1002
43.2328
41.6302
43.081
41.7636
42.0702
44.655
43.5179
43.2328
44.655
43.2416
41.6302
43.3296
46.4606
44.0709
44.0709
46.8938
45.4864
45.3167
44.3397
44.3397
46.3949
46.8938
46.3666
48.8627
48.8627
46.3949
46.8938

SCALARS fibres double
LOOKUP_TABLE default
0
0
0
0
0
0
0
0
0
0
0
0
0
0
0
0
0
0
0
0
0
0
0
0
0
0
0
0
0
0
0
0
0
0
0
0
0
0
0
0
0
0
0
0
0
0
0
0
0
0
0
0
0
0
0
0
0
0
0
0
0
0
0
0
0
0
0
0
0
0
0
0
0
0
0
0
0
0
0
0
0
0
0
0
0
0
0
0
0
0
0
0
0
0
0
0
0
0
0
0
0
0
0
0
0
0
0
0
0
0
0
0
0
0
0
0
0
0
0
0
0
0
0
0
0
0
0
0
0
0
0
0
0
0
0
0
0
0
0
0
0
0
0
0
0
0
0
0
0
0
0
0
0
0
0
0
0
0
0
0
0
0
0
0
0
0
0
0
0
0
0
0
0
0
0
0
0
0
0
0
0
0
0
0
0
0
0
0
0
0
0
0
0
0
0
0
0
0
0
0
0
0
0
0
0
0
0
0
0
0
0
0
0
0
0
0
0
0
0
0
0
0
0
0
0
0
0
0
0
0
0
0
0
0
0
0
0
0
0
0
0
0
0
0
0
0
0
0
0
0
0
0

SCALARS phenot double
LOOKUP_TABLE default
7
7
7
7
7
7
7
7
7
7
7
7
7
7
7
7
7
7
7
7
7
7
7
7
7
7
7
7
7
7
7
7
7
7
7
7
7
7
7
7
7
7
7
7
7
7
7
7
7
7
7
7
7
7
7
7
7
7
7
7
7
7
7
7
7
7
7
7
7
7
7
7
7
7
7
7
7
7
7
7
7
7
7
7
7
7
7
7
7
7
7
7
7
7
7
7
7
7
7
7
7
7
7
7
7
7
7
7
7
7
7
7
7
7
7
7
7
7
7
7
7
7
7
7
7
7
7
7
7
7
7
7
7
7
7
7
7
7
7
7
7
7
7
7
7
7
7
7
7
7
7
7
7
7
7
7
7
7
7
7
7
7
7
7
7
7
7
7
7
7
7
7
7
7
7
7
7
7
7
7
7
7
7
7
7
7
7
7
7
7
7
7
7
7
7
7
7
7
7
7
7
7
7
7
7
7
7
7
7
7
7
7
7
7
7
7
7
7
7
7
7
7
7
7
7
7
7
7
7
7
7
7
7
7
7
7
7
7
7
7
7
7
7
7
7
7
7
7
7
7
7
7

SCALARS cont_pheno double
LOOKUP_TABLE default
0.5
0.5
0.5
0.5
0.5
0.5
0.5
0.5
0.5
0.5
0.5
0.5
0.5
0.5
0.5
0.5
0.5
0.5
0.5
0.5
0.5
0.5
0.5
0.5
0.5
0.5
0.5
0.5
0.5
0.5
0.5
0.5
0.5
0.5
0.5
0.5
0.5
0.5
0.5
0.5
0.5
0.5
0.5
0.5
0.5
0.5
0.5
0.5
0.5
0.5
0.5
0.5
0.5
0.5
0.5
0.5
0.45
0.5
0.5
0.5
0.5
0.5
0.5
0.5
0.5
0.5
0.5
0.5
0.45
0.5
0.5
0.5
0.5
0.5
0.5
0.5
0.5
0.5
0.5
0.5
0.5
0.5
0.5
0.5
0.5
0.5
0.5
0.5
0.5
0.5
0.5
0.5
0.5
0.5
0.5
0.5
0.5
0.5
0.5
0.5
0.5
0.5
0.5
0.5
0.5
0.5
0.5
0.5
0.5
0.5
0.5
0.5
0.5
0.5
0.5
0.5
0.5
0.5
0.5
0.5
0.5
0.5
0.5
0.5
0.5
0.5
0.5
0.5
0.5
0.5
0.5
0.5
0.5
0.5
0.5
0.5
0.5
0.5
0.5
0.5
0.5
0.5
0.5
0.5
0.5
0.5
0.5
0.5
0.5
0.5
0.5
0.5
0.5
0.5
0.5
0.5
0.5
0.5
0.5
0.5
0.5
0.5
0.5
0.5
0.5
0.5
0.5
0.5
0.5
0.5
0.5
0.5
0.5
0.5
0.5
0.5
0.5
0.5
0.5
0.5
0.5
0.5
0.5
0.5
0.5
0.5
0.5
0.5
0.5
0.5
0.5
0.5
0.5
0.5
0.5
0.5
0.5
0.5
0.5
0.5
0.5
0.5
0.5
0.5
0.5
0.5
0.5
0.5
0.5
0.5
0.5
0.5
0.5
0.5
0.55
0.5
0.5
0.5
0.5
0.5
0.5
0.5
0.5
0.5
0.5
0.5
0.5
0.5
0.5
0.5
0.5
0.5
0.5
0.5
0.5
0.5
0.5
0.5
0.5
0.5
0.5
0.5
0.5
0.5
0.5
0.5
0.5
0.55
0.5
0.5
0.5
0.5

SCALARS name double
LOOKUP_TABLE default
91
219
21
180
99
48
218
240
54
26
169
55
188
109
222
250
40
132
15
97
248
1
11
159
152
44
86
196
74
136
236
52
35
197
175
198
31
201
60
29
118
200
138
89
214
36
63
76
237
141
96
3
37
78
235
94
165
234
168
120
190
212
122
7
220
93
154
224
69
241
67
100
243
16
70
62
71
208
251
163
149
204
211
231
115
177
32
199
182
114
85
225
166
22
207
156
64
167
246
23
87
242
183
228
194
192
170
229
205
10
119
124
13
189
66
2
61
106
139
20
147
178
158
39
133
140
88
103
160
73
244
121
6
150
142
113
4
47
144
110
128
49
24
249
57
226
143
148
95
33
216
38
146
230
135
79
17
134
245
27
116
68
191
171
104
217
84
195
59
25
232
125
123
238
8
46
153
227
75
107
5
145
50
206
80
28
42
19
34
77
157
9
117
51
172
130
210
161
213
186
185
181
101
127
209
58
215
187
14
83
162
18
53
105
247
90
56
92
239
102
155
129
202
111
12
151
0
72
98
81
41
223
82
176
203
184
43
112
126
164
193
45
108
137
233
173
65
131
30
174
221
179

SCALARS interaction_phenotype double
LOOKUP_TABLE default
0
0
0
0
0
0
0
0
0
0
0
0
0
0
0
0
0
0
0
0
0
0
0
0
0
0
0
0
0
0
0
0
0
0
0
0
0
0
0
0
0
0
0
0
0
0
0
0
0
0
0
0
0
0
0
0
0
0
0
0
0
0
0
0
0
0
0
0
0
0
0
0
0
0
0
0
0
0
0
0
0
0
0
0
0
0
0
0
0
0
0
0
0
0
0
0
0
0
0
0
0
0
0
0
0
0
0
0
0
0
0
0
0
0
0
0
0
0
0
0
0
0
0
0
0
0
0
0
0
0
0
0
0
0
0
0
0
0
0
0
0
0
0
0
0
0
0
0
0
0
0
0
0
0
0
0
0
0
0
0
0
0
0
0
0
0
0
0
0
0
0
0
0
0
0
0
0
0
0
0
0
0
0
0
0
0
0
0
0
0
0
0
0
0
0
0
0
0
0
0
0
0
0
0
0
0
0
0
0
0
0
0
0
0
0
0
0
0
0
0
0
0
0
0
0
0
0
0
0
0
0
0
0
0
0
0
0
0
0
0
0
0
0
0
0
0
0
0
0
0
0
0

SCALARS vessel_interaction double
LOOKUP_TABLE default
0
0
0
0
0
0
0
0
0
0
0
0
0
0
0
0
0
0
0
0
0
0
0
0
0
0
0
0
0
0
0
0
0
0
0
0
0
0
0
0
0
0
0
0
0
0
0
0
0
0
0
0
0
0
0
0
0
0
0
0
0
0
0
0
0
0
0
0
0
0
0
0
0
0
0
0
0
0
0
0
0
0
0
0
0
0
0
0
0
0
0
0
0
0
0
0
0
0
0
0
0
0
0
0
0
0
0
0
0
0
0
0
0
0
0
0
0
0
0
0
0
0
0
0
0
0
0
0
0
0
0
0
0
0
0
0
0
0
0
0
0
0
0
0
0
0
0
0
0
0
0
0
0
0
0
0
0
0
0
0
0
0
0
0
0
0
0
0
0
0
0
0
0
0
0
0
0
0
0
0
0
0
0
0
0
0
0
0
0
0
0
0
0
0
0
0
0
0
0
0
0
0
0
0
0
0
0
0
0
0
0
0
0
0
0
0
0
0
0
0
0
0
0
0
0
0
0
0
0
0
0
0
0
0
0
0
0
0
0
0
0
0
0
0
0
0
0
0
0
0
0
0

SCALARS is_follower double
LOOKUP_TABLE default
1
1
1
1
1
1
1
1
1
1
1
1
1
1
1
1
1
1
1
1
1
1
1
1
1
1
1
1
1
1
1
1
1
1
1
1
1
1
1
1
1
1
1
1
1
1
1
1
1
1
1
1
1
1
1
1
1
1
1
1
1
1
1
1
1
1
1
1
1
1
1
1
1
1
1
1
1
1
1
1
1
1
1
1
1
1
1
1
1
1
1
1
1
1
1
1
1
1
1
1
1
1
1
1
1
1
1
1
1
1
1
1
1
1
1
1
1
1
1
1
1
1
1
1
1
1
1
1
1
1
1
1
1
1
1
1
1
1
1
1
1
1
1
1
1
1
1
1
1
1
1
1
1
1
1
1
1
1
1
1
1
1
1
1
1
1
1
1
1
1
1
1
1
1
1
1
1
1
1
1
1
1
1
1
1
1
1
1
1
1
1
1
1
1
1
1
1
1
1
1
1
1
1
1
1
1
1
1
1
1
1
1
1
1
1
1
1
1
1
1
1
1
1
1
1
1
1
1
1
1
1
1
1
1
1
1
1
1
1
1
1
1
1
1
1
1
1
1
1
1
1
1

SCALARS polarised double
LOOKUP_TABLE default
0
0
0
0
0
0
0
0
0
0
0
0
0
0
0
0
0
0
0
0
0
0
0
0
0
0
0
0
0
0
0
0
0
0
0
0
0
0
0
0
0
0
0
0
0
0
0
0
0
0
0
0
0
0
0
0
0
0
0
0
0
0
0
0
0
0
0
0
0
0
0
0
0
0
0
0
0
0
0
0
0
0
0
0
0
0
0
0
0
0
0
0
0
0
0
0
0
0
0
0
0
0
0
0
0
0
0
0
0
0
0
0
0
0
0
0
0
0
0
0
0
0
0
0
0
0
0
0
0
0
0
0
0
0
0
0
0
0
0
0
0
0
0
0
0
0
0
0
0
0
0
0
0
0
0
0
0
0
0
0
0
0
0
0
0
0
0
0
0
0
0
0
0
0
0
0
0
0
0
0
0
0
0
0
0
0
0
0
0
0
0
0
0
0
0
0
0
0
0
0
0
0
0
0
0
0
0
0
0
0
0
0
0
0
0
0
0
0
0
0
0
0
0
0
0
0
0
0
0
0
0
0
0
0
0
0
0
0
0
0
0
0
0
0
0
0
0
0
0
0
0
0

