# vtk DataFile Version 2.0
Unstructured grid legacy vtk file with point scalar data
ASCII

DATASET UNSTRUCTURED_GRID
POINTS 232 double
65.334 113.309 101.543
66.265 106.706 105.91
65.3247 115.879 92.2306
67.8355 100.26 102.518
73.4796 99.0511 98.9735
75.1205 102.974 106.536
75.5135 104.34 114.488
75.7647 113.124 79.2568
73.7504 106.879 92.1766
72.1885 113.709 87.8484
66.9375 108.863 94.5458
72.3259 107.999 100.369
69.305 107.887 111.844
74.9217 112.521 114.425
68.918 107.467 118.213
72.0831 115.401 97.3763
82.0956 89.2052 101.891
82.7569 92.3561 110.043
76.7029 95.1054 105.688
78.2604 93.1529 116.994
82.4418 92.0142 125.047
76.4256 99.9718 91.4856
83.3255 95.3261 91.461
80.1741 96.0052 97.8773
83.2311 99.693 102.507
78.658 104.349 100.285
83.9518 102.696 113.368
84.6952 98.0372 120.015
76.7101 100.359 121.465
81.2957 99.829 128.281
83.0394 111.167 81.4506
80.2886 110.309 88.9533
81.7003 105.332 94.3691
79.8768 111.944 99.2731
84.6905 111.335 111.046
77.4054 110.901 106.594
84.7132 106.998 119.495
81.972 120.14 83.4968
78.551 116.904 92.818
83.2855 123.741 104.223
85.6957 116.811 95.3996
82.1078 119.522 112.212
81.6064 114.837 119.092
94.0521 85.5171 93.0396
87.334 85.7486 107.217
89.7993 92.5604 95.4645
92.8018 87.2753 101.161
88.8162 93.6137 104.398
93.114 88.8957 112.571
86.7611 90.5618 117.711
89.4296 97.4079 79.9626
89.6152 97.4862 88.0318
92.6669 104.482 89.847
94.0742 97.3904 95.3108
88.3142 101.299 95.99
92.6957 100.402 103.013
86.335 100.342 107.152
89.0536 96.5619 112.384
91.4566 102.184 117.841
92.1822 95.4086 123.102
88.7106 102.597 125.894
92.0496 104.449 133.613
89.8726 109.028 66.3377
91.4542 112.188 73.6531
89.3642 106.188 82.0579
88.1694 112.707 87.9335
94.5651 112.465 93.7638
87.6757 108.457 94.0372
95.1846 110.567 85.776
86.098 107.283 101.901
93.2666 107.475 99.6402
88.079 113.281 95.7572
89.8488 105.878 108.577
94.6281 108.954 114.814
91.688 109.272 122.721
88.9976 120.152 73.252
89.934 115.679 80.7117
89.9648 123.792 81.3265
88.3591 120.736 88.9655
92.8367 119.813 96.5064
86.4704 115.288 102.771
89.2191 122.122 110.951
89.9553 119.9 105.14
89.0347 115.84 115.97
94.8041 125.661 90.5802
90.8688 127.659 97.7706
94.9259 126.414 110.489
99.3225 84.8487 88.0951
100.97 85.3122 99.0878
102.019 79.2973 105.739
102.02 79.1966 111.64
95.6538 92.7351 84.4153
100.997 91.7833 78.6337
101.801 91.5901 90.46
103.659 93.7083 97.4764
97.4056 91.236 99.3559
103.749 91.6362 104.708
102.18 90.1255 113.202
96.5237 94.2591 107.725
98.4606 85.7767 107.13
98.4328 89.9316 123.241
104.467 94.8856 121.841
102.405 100.529 78.1032
96.0215 101.293 83.2026
97.3188 97.7736 89.7537
103.63 98.2492 86.3561
97.5438 95.9917 100.624
103.261 100.402 102.29
98.0619 102.828 95.9532
95.3803 100.931 111.114
101.591 104.307 113.77
103.781 97.339 110.643
98.1447 96.6533 117.15
98.4845 104.394 121.381
98.7721 101.93 129.517
104.306 114.266 64.7282
98.0591 110.849 69.4013
103.917 109.018 75.2064
96.0756 105.965 76.547
101.934 107.525 83.1266
97.6362 113.514 78.8852
100.571 108.387 91.4379
101.72 108.657 99.935
97.0359 106.906 106.282
101.733 110.964 108.822
104.524 110.252 116.806
104.684 108.447 123.644
103.194 109.266 130.603
97.708 119.014 73.551
102.989 116.406 84.1752
98.1046 123.174 82.6648
96.3721 117.937 88.8885
102.428 123.655 90.3788
102.397 118.694 93.7418
95.3333 114.429 102.345
95.8362 123.53 103.025
100.607 115.53 97.2323
104.566 122.659 100.206
100.62 118.623 105.944
95.469 115.978 110.833
104.613 116.972 111.7
96.9315 122.667 117.422
95.5398 115.351 120.532
102.224 117.548 118.241
99.7204 115.487 127.492
102.39 122.884 124.201
99.7063 120.771 132.866
99.2964 128.174 97.1261
103.026 130.898 104.438
103.787 124.699 109.743
101.182 131.624 113.331
103.409 124.804 133.001
105.001 80.8219 85.4757
106.513 85.3789 92.419
105.248 78.7429 98.1112
108.187 84.4385 103.902
113.887 85.6711 97.0658
107.215 83.5382 112.075
108.476 90.8521 85.4426
108.622 95.186 78.3963
110.38 93.0776 93.7138
110.285 90.7158 109.887
106.518 86.9573 119.659
110.471 94.3116 117.225
114.255 94.2564 124.056
109.592 95.1116 128.865
110.016 104.281 78.0431
112.528 98.1375 87.6907
106.105 102.948 94.4469
111.159 96.2084 103.297
113.783 100.15 95.612
111.547 98.8415 111.195
106.963 102.113 119.9
106.093 100.092 127.886
113.65 101.976 126.647
105.14 102.912 134.749
109.492 105.478 69.6733
108.769 111.562 83.0694
113.319 111.575 78.7502
107.819 104.899 86.6685
113.236 108.131 91.5014
106.478 112.425 89.8295
109.351 111.15 97.37
114.102 105.472 101.594
113.179 112.945 104.925
110.526 106.263 113.225
107.691 107.162 105.244
112.464 108.819 121.17
111.326 107.955 132.314
105.221 111.676 137.552
107.206 116.732 76.5973
110.882 118.957 86.0235
108.801 118.363 93.6058
105.706 115.033 102.488
113.131 119.661 99.494
109.979 119.623 107.613
111.722 114.568 115.145
108.859 122.088 116.03
107.745 115.985 122.638
113.342 114.696 127.968
106.352 117.409 130.957
106.272 126.489 84.6821
110.526 125.763 91.7945
107.448 130.188 97.6208
110.766 127.167 104.471
120.495 94.8194 90.7804
117.397 93.0911 97.9641
116.091 88.4788 104.66
118.184 94.0149 113.842
118.957 97.1453 82.3433
120.834 99.851 100.617
117.794 100.766 107.55
115.473 101.128 118.709
116.212 109.135 72.8698
115.792 105.459 83.5331
122.119 106.388 77.8211
120.369 111.236 87.9562
120.132 105.487 94.6929
117.725 112.485 98.3949
121.24 107.632 104.676
119.192 106.268 113.522
118.381 113.465 110.618
119.193 112.935 118.776
119.119 108.919 126.698
117.456 113.534 134.766
116.571 117.111 91.9103
118.767 119.718 105.27
115.421 120.026 121.942
122.707 121.212 117.802
123.641 116.008 124.599
117.516 124.4 93.9419
125.438 115.234 112.803

POINT_DATA 232
SCALARS radius double
LOOKUP_TABLE default
5.08931
5.03939
5.08931
5.03939
4.83939
5.03939
5.03939
5.07271
4.73939
5.08931
4.83939
5.08931
4.59976
5.03939
4.69976
5.03939
5.0053
5.02621
5.0053
5.02621
5.0053
5.07271
5.07271
5.07271
4.52621
4.93939
5.08931
5.07271
5.03939
5.07271
5.08931
5.04636
5.08931
5.02621
5.08931
5.02621
5.08931
5.02621
5.03939
5.0053
4.1053
5.03939
5.08931
5.09809
5.0053
5.0053
5.07271
5.0053
5.02621
5.07271
5.0053
5.0053
5.0053
4.83939
5.07271
5.09976
4.52621
5.0053
5.08931
5.03939
5.03939
5.08931
5.07271
5.0053
5.04636
5.02272
5.07271
5.07271
5.08654
5.07271
5.07271
4.0053
5.09976
5.02621
5.07271
5.02621
5.08931
5.02621
5.03939
5.03939
5.0053
4.53939
4.53939
5.08931
5.03939
5.03939
5.03939
4.88931
5.0053
4.23939
4.23939
5.04636
5.04636
5.07271
5.07271
4.2053
5.09809
5.02621
5.03939
5.07271
5.0053
5.02621
5.04636
5.04636
4.83939
5.09809
4.2053
5.08931
5.08931
5.03939
5.03939
5.07271
5.03939
5.08931
5.08931
5.02621
5.02621
5.0053
5.0053
5.09809
5.08654
5.0053
5.0053
5.02621
5.08931
5.08931
5.03939
5.03939
5.07271
5.03939
5.09976
5.06831
5.02621
4.24768
5.03939
5.03939
4.34768
5.08931
5.03939
5.08931
5.08931
5.08931
5.03939
5.08931
5.03939
5.04768
4.10635
5.03939
5.07271
5.07271
5.03939
4.20635
4.98931
5.03939
5.08931
5.03939
5.03939
5.02621
5.09809
5.04636
5.09809
5.02621
5.07271
5.08931
5.07271
4.27271
5.02621
5.09809
5.09809
5.07271
5.04636
5.08931
5.03939
4.27271
5.08931
5.04768
5.07271
4.58931
4.58931
5.02621
5.0053
5.02621
5.07271
5.07271
5.02621
5.09976
5.02621
5.08931
5.04768
5.04768
5.03939
5.03939
5.02621
5.03939
5.08931
5.08931
5.02621
5.0053
5.08931
5.04768
5.04768
5.09976
4.78931
5.02621
5.07271
5.09809
5.03728
5.03939
5.08931
5.07271
5.04636
5.08931
5.03939
5.04636
5.07271
5.04636
5.0053
5.04636
5.07271
5.04768
5.04768
5.02621
5.03939
5.08931
5.04768
5.02621
5.07271
5.03939
5.03939
5.03939
4.78931
5.02621

SCALARS status double
LOOKUP_TABLE default
1
1
1
1
1
1
1
1
1
1
1
1
1
1
1
1
1
1
1
1
1
1
1
1
1
1
1
1
1
1
1
1
1
1
1
1
1
1
1
1
1
1
1
1
1
1
1
2
1
1
1
1
1
1
1
1
1
2
1
1
1
1
1
1
1
1
1
1
1
1
1
1
1
1
1
1
1
1
1
1
1
1
1
1
1
1
1
1
1
1
1
1
1
1
1
1
1
1
1
1
1
1
1
1
1
1
1
1
1
1
1
1
1
1
1
1
1
1
1
1
1
1
1
1
1
1
1
1
1
1
1
1
1
1
1
1
1
1
1
1
1
1
1
1
1
1
1
1
1
1
1
1
1
1
1
1
1
1
1
1
1
1
1
1
1
1
1
1
1
1
1
1
1
1
1
1
1
1
1
1
1
1
1
1
1
1
1
1
1
1
1
1
1
1
1
1
1
1
1
1
1
1
1
1
1
1
1
1
1
1
1
1
1
1
1
1
1
1
1
1
1
1
1
1
1
1
1
1
1
1
1
1

SCALARS concentration double
LOOKUP_TABLE default
34.4128
34.7652
34.86
33.6655
36.4153
35.4016
35.3189
38.3969
35.1842
35.1842
35.1842
35.0611
34.7652
36.4044
34.7652
36.6135
35.6299
35.0071
35.6299
35.0071
34.7393
35.0223
36.1108
36.1108
37.2165
36.4153
37.6381
35.8637
35.3189
35.8637
38.3969
37.9921
36.4153
36.9403
38.0035
36.9403
37.4803
38.3969
36.6135
39.0578
38.2926
38.2658
38.0035
35.5803
35.1196
36.3559
36.5692
36.6892
38.1319
35.9857
36.5237
36.5237
38.9275
38.5913
37.5849
38.2641
37.2165
36.6892
37.8005
37.5292
37.5292
37.9769
39.3081
38.7479
38.7088
41.2466
38.9275
38.09
41.2466
38.09
38.9275
38.2926
38.2641
39.2791
39.2266
40.7712
38.3969
40.7712
40.0877
40.4274
39.5437
40.0073
40.0073
40.0073
42.2639
42.2639
42.9547
36.8527
37.319
36.3726
36.3726
37.9313
37.9313
37.319
37.319
37.4989
38.1804
38.1319
38.2641
36.5692
37.5493
40.1002
39.1766
38.4807
38.5913
40.4254
37.4989
39.6258
38.5913
37.8005
37.8005
40.2067
38.8638
38.9067
38.9213
41.7097
41.7097
41.4161
39.4678
40.8589
41.2466
40.834
40.834
39.2791
41.5773
40.1952
41.4952
41.4952
40.7712
42.8912
43.53
41.2466
44.128
41.2466
40.3223
41.7013
41.2466
43.3481
43.3481
41.2339
42.7336
42.5431
41.0738
42.7336
41.0738
43.1466
43.1466
43.6386
45.6046
44.0719
42.9547
43.1466
36.8527
37.889
36.3726
37.9308
37.889
36.7162
38.7939
39.391
39.3469
39.348
38.1336
40.1002
40.1002
39.973
41.4361
40.9289
41.6302
39.9137
41.6302
40.1002
40.3782
39.973
42.2831
42.393
42.1442
43.5179
43.5179
41.4361
43.2416
43.255
43.5434
43.3296
43.3296
42.5379
43.3296
42.2831
42.393
43.1466
44.2816
46.1285
44.128
43.3481
44.8147
44.8147
44.8147
45.7648
43.6875
44.3397
43.1466
46.2952
46.3949
46.3146
46.6918
40.9289
41.0433
37.9308
41.2407
43.2328
43.081
41.7636
42.0702
44.655
43.2328
44.655
43.2416
41.6302
46.4606
44.0709
44.0709
46.8938
45.4864
45.3167
44.3397
46.3949
46.8938
46.3666
48.8627
48.8627
46.3949
46.8938

SCALARS fibres double
LOOKUP_TABLE default
0
0
0
0
0
0
0
0
0
0
0
0
0
0
0
0
0
0
0
0
0
0
0
0
0
0
0
0
0
0
0
0
0
0
0
0
0
0
0
0
0
0
0
0
0
0
0
0
0
0
0
0
0
0
0
0
0
0
0
0
0
0
0
0
0
0
0
0
0
0
0
0
0
0
0
0
0
0
0
0
0
0
0
0
0
0
0
0
0
0
0
0
0
0
0
0
0
0
0
0
0
0
0
0
0
0
0
0
0
0
0
0
0
0
0
0
0
0
0
0
0
0
0
0
0
0
0
0
0
0
0
0
0
0
0
0
0
0
0
0
0
0
0
0
0
0
0
0
0
0
0
0
0
0
0
0
0
0
0
0
0
0
0
0
0
0
0
0
0
0
0
0
0
0
0
0
0
0
0
0
0
0
0
0
0
0
0
0
0
0
0
0
0
0
0
0
0
0
0
0
0
0
0
0
0
0
0
0
0
0
0
0
0
0
0
0
0
0
0
0
0
0
0
0
0
0
0
0
0
0
0
0

SCALARS phenot double
LOOKUP_TABLE default
7
7
7
7
7
7
7
7
7
7
7
7
7
7
7
7
7
7
7
7
7
7
7
7
7
7
7
7
7
7
7
7
7
7
7
7
7
7
7
7
7
7
7
7
7
7
7
7
7
7
7
7
7
7
7
7
7
7
7
7
7
7
7
7
7
7
7
7
7
7
7
7
7
7
7
7
7
7
7
7
7
7
7
7
7
7
7
7
7
7
7
7
7
7
7
7
7
7
7
7
7
7
7
7
7
7
7
7
7
7
7
7
7
7
7
7
7
7
7
7
7
7
7
7
7
7
7
7
7
7
7
7
7
7
7
7
7
7
7
7
7
7
7
7
7
7
7
7
7
7
7
7
7
7
7
7
7
7
7
7
7
7
7
7
7
7
7
7
7
7
7
7
7
7
7
7
7
7
7
7
7
7
7
7
7
7
7
7
7
7
7
7
7
7
7
7
7
7
7
7
7
7
7
7
7
7
7
7
7
7
7
7
7
7
7
7
7
7
7
7
7
7
7
7
7
7
7
7
7
7
7
7

SCALARS cont_pheno double
LOOKUP_TABLE default
0.5
0.5
0.5
0.5
0.5
0.5
0.5
0.5
0.5
0.5
0.5
0.5
0.5
0.5
0.5
0.5
0.5
0.5
0.5
0.5
0.5
0.5
0.5
0.5
0.5
0.5
0.5
0.5
0.5
0.5
0.5
0.5
0.5
0.5
0.5
0.5
0.5
0.5
0.5
0.5
0.5
0.5
0.5
0.5
0.5
0.5
0.5
0.45
0.5
0.5
0.5
0.5
0.5
0.5
0.5
0.5
0.5
0.45
0.5
0.5
0.5
0.5
0.5
0.5
0.5
0.5
0.5
0.5
0.5
0.5
0.5
0.5
0.5
0.5
0.5
0.5
0.5
0.5
0.5
0.5
0.5
0.5
0.5
0.5
0.5
0.5
0.5
0.5
0.5
0.5
0.5
0.5
0.5
0.5
0.5
0.5
0.5
0.5
0.5
0.5
0.5
0.5
0.5
0.5
0.5
0.5
0.5
0.5
0.5
0.5
0.5
0.5
0.5
0.5
0.5
0.5
0.5
0.5
0.5
0.5
0.5
0.5
0.5
0.5
0.5
0.5
0.5
0.5
0.5
0.5
0.5
0.5
0.5
0.5
0.5
0.5
0.5
0.5
0.5
0.5
0.5
0.5
0.5
0.5
0.5
0.5
0.5
0.5
0.5
0.5
0.5
0.5
0.5
0.5
0.5
0.5
0.5
0.5
0.5
0.5
0.5
0.5
0.5
0.5
0.5
0.5
0.5
0.5
0.5
0.5
0.5
0.5
0.5
0.5
0.5
0.5
0.5
0.5
0.5
0.5
0.5
0.5
0.5
0.5
0.5
0.5
0.5
0.5
0.5
0.5
0.5
0.5
0.5
0.5
0.5
0.5
0.5
0.5
0.5
0.5
0.5
0.5
0.5
0.5
0.5
0.5
0.5
0.5
0.5
0.5
0.5
0.5
0.5
0.5
0.5
0.5
0.5
0.5
0.5
0.5
0.5
0.5
0.5
0.5
0.5
0.5
0.5
0.55
0.5
0.5
0.5
0.5

SCALARS name double
LOOKUP_TABLE default
21
180
99
91
218
54
26
169
55
188
219
109
222
40
132
15
1
159
152
44
86
48
196
11
136
201
52
35
197
175
198
31
74
60
118
200
138
89
214
96
36
76
141
3
97
94
37
165
168
120
212
122
7
220
93
154
224
69
67
190
100
16
70
62
71
163
149
204
208
29
211
231
177
144
32
199
182
156
114
85
63
166
225
22
64
167
116
23
87
183
228
78
192
170
205
229
10
119
124
194
13
189
66
2
106
61
139
20
147
178
158
39
133
140
88
103
160
121
73
6
150
142
113
4
47
110
213
128
49
24
135
57
79
226
115
17
143
58
148
95
14
33
207
216
38
146
230
134
27
68
191
171
217
125
104
84
195
59
25
75
123
8
46
153
12
227
107
5
145
50
0
206
80
28
42
19
34
77
223
157
9
117
51
43
172
130
210
161
186
181
101
127
209
215
187
83
162
18
53
185
105
90
56
92
102
155
129
202
111
151
72
98
81
41
82
176
203
184
112
126
164
193
45
108
137
173
65
131
30
174
221
179

SCALARS interaction_phenotype double
LOOKUP_TABLE default
0
0
0
0
0
0
0
0
0
0
0
0
0
0
0
0
0
0
0
0
0
0
0
0
0
0
0
0
0
0
0
0
0
0
0
0
0
0
0
0
0
0
0
0
0
0
0
0
0
0
0
0
0
0
0
0
0
0
0
0
0
0
0
0
0
0
0
0
0
0
0
0
0
0
0
0
0
0
0
0
0
0
0
0
0
0
0
0
0
0
0
0
0
0
0
0
0
0
0
0
0
0
0
0
0
0
0
0
0
0
0
0
0
0
0
0
0
0
0
0
0
0
0
0
0
0
0
0
0
0
0
0
0
0
0
0
0
0
0
0
0
0
0
0
0
0
0
0
0
0
0
0
0
0
0
0
0
0
0
0
0
0
0
0
0
0
0
0
0
0
0
0
0
0
0
0
0
0
0
0
0
0
0
0
0
0
0
0
0
0
0
0
0
0
0
0
0
0
0
0
0
0
0
0
0
0
0
0
0
0
0
0
0
0
0
0
0
0
0
0
0
0
0
0
0
0
0
0
0
0
0
0

SCALARS vessel_interaction double
LOOKUP_TABLE default
0
0
0
0
0
0
0
0
0
0
0
0
0
0
0
0
0
0
0
0
0
0
0
0
0
0
0
0
0
0
0
0
0
0
0
0
0
0
0
0
0
0
0
0
0
0
0
0
0
0
0
0
0
0
0
0
0
0
0
0
0
0
0
0
0
0
0
0
0
0
0
0
0
0
0
0
0
0
0
0
0
0
0
0
0
0
0
0
0
0
0
0
0
0
0
0
0
0
0
0
0
0
0
0
0
0
0
0
0
0
0
0
0
0
0
0
0
0
0
0
0
0
0
0
0
0
0
0
0
0
0
0
0
0
0
0
0
0
0
0
0
0
0
0
0
0
0
0
0
0
0
0
0
0
0
0
0
0
0
0
0
0
0
0
0
0
0
0
0
0
0
0
0
0
0
0
0
0
0
0
0
0
0
0
0
0
0
0
0
0
0
0
0
0
0
0
0
0
0
0
0
0
0
0
0
0
0
0
0
0
0
0
0
0
0
0
0
0
0
0
0
0
0
0
0
0
0
0
0
0
0
0

SCALARS is_follower double
LOOKUP_TABLE default
1
1
1
1
1
1
1
1
1
1
1
1
1
1
1
1
1
1
1
1
1
1
1
1
1
1
1
1
1
1
1
1
1
1
1
1
1
1
1
1
1
1
1
1
1
1
1
1
1
1
1
1
1
1
1
1
1
1
1
1
1
1
1
1
1
1
1
1
1
1
1
1
1
1
1
1
1
1
1
1
1
1
1
1
1
1
1
1
1
1
1
1
1
1
1
1
1
1
1
1
1
1
1
1
1
1
1
1
1
1
1
1
1
1
1
1
1
1
1
1
1
1
1
1
1
1
1
1
1
1
1
1
1
1
1
1
1
1
1
1
1
1
1
1
1
1
1
1
1
1
1
1
1
1
1
1
1
1
1
1
1
1
1
1
1
1
1
1
1
1
1
1
1
1
1
1
1
1
1
1
1
1
1
1
1
1
1
1
1
1
1
1
1
1
1
1
1
1
1
1
1
1
1
1
1
1
1
1
1
1
1
1
1
1
1
1
1
1
1
1
1
1
1
1
1
1
1
1
1
1
1
1

SCALARS polarised double
LOOKUP_TABLE default
0
0
0
0
0
0
0
0
0
0
0
0
0
0
0
0
0
0
0
0
0
0
0
0
0
0
0
0
0
0
0
0
0
0
0
0
0
0
0
0
0
0
0
0
0
0
0
0
0
0
0
0
0
0
0
0
0
0
0
0
0
0
0
0
0
0
0
0
0
0
0
0
0
0
0
0
0
0
0
0
0
0
0
0
0
0
0
0
0
0
0
0
0
0
0
0
0
0
0
0
0
0
0
0
0
0
0
0
0
0
0
0
0
0
0
0
0
0
0
0
0
0
0
0
0
0
0
0
0
0
0
0
0
0
0
0
0
0
0
0
0
0
0
0
0
0
0
0
0
0
0
0
0
0
0
0
0
0
0
0
0
0
0
0
0
0
0
0
0
0
0
0
0
0
0
0
0
0
0
0
0
0
0
0
0
0
0
0
0
0
0
0
0
0
0
0
0
0
0
0
0
0
0
0
0
0
0
0
0
0
0
0
0
0
0
0
0
0
0
0
0
0
0
0
0
0
0
0
0
0
0
0

