# vtk DataFile Version 2.0
Unstructured grid legacy vtk file with point scalar data
ASCII

DATASET UNSTRUCTURED_GRID
POINTS 32 double
74.9205 110.384 101.173
81.5767 105.675 100.364
77.7451 104.917 107.773
94.5628 101.512 93.8925
88.8179 103.613 100.133
90.8065 97.7619 110.006
95.1217 104.718 118.191
93.7858 110.013 93.1235
98.0692 93.389 95.1226
103.127 92.7387 101.206
102.125 100.627 97.3149
95.6809 102.825 102.528
97.0927 96.0554 105.332
97.7029 102.504 110.675
104.654 97.1296 108.371
102.254 98.1107 116.177
102.224 104.143 121.795
97.8215 108.308 88.3114
98.3753 108.95 98.4711
103.236 104.961 104.206
104.087 113.672 102.167
101.868 109.305 114.131
97.3558 110.663 106.534
100.242 115.71 94.7434
97.9033 118.736 103.281
110.245 98.3027 94.4725
107.379 102.128 86.9954
108.021 104.069 110.112
106.262 108.282 97.0606
107.903 112.149 108.949
107.102 110.394 121.26
111.233 108.804 115.152

POINT_DATA 32
SCALARS radius double
LOOKUP_TABLE default
5.07271
5.0053
5.07271
5.09809
5.04636
5.03728
5.0053
4.43728
5.03728
5.0053
5.08666
5.09809
5.09809
5.0053
5.0053
5.04636
5.0053
4.33728
5.09809
5.0053
5.09809
5.07271
5.07271
5.07271
5.07271
5.08666
5.08666
5.0053
5.03728
5.09809
5.07271
5.07271

SCALARS status double
LOOKUP_TABLE default
1
1
1
1
1
1
1
1
1
1
1
1
1
1
1
1
1
1
1
1
1
1
1
1
1
1
1
1
1
1
1
1

SCALARS concentration double
LOOKUP_TABLE default
38.9575
38.9575
38.9575
38.9575
38.9575
38.9575
38.9575
38.9575
38.9575
38.9575
38.9575
38.9575
38.9575
38.9575
38.9575
38.9575
38.9575
38.9575
38.9575
38.9575
38.9575
38.9575
38.9575
38.9575
38.9575
38.9575
38.9575
38.9575
38.9575
38.9575
38.9575
38.9575

SCALARS fibres double
LOOKUP_TABLE default
0
0
0
0
0
0
0
0
0
0
0
0
0
0
0
0
0
0
0
0
0
0
0
0
0
0
0
0
0
0
0
0

SCALARS phenot double
LOOKUP_TABLE default
7
7
7
7
7
7
7
7
7
7
7
7
7
7
7
7
7
7
7
7
7
7
7
7
7
7
7
7
7
7
7
7

SCALARS cont_pheno double
LOOKUP_TABLE default
0.5
0.5
0.5
0.5
0.5
0.5
0.5
0.5
0.5
0.5
0.5
0.5
0.5
0.5
0.5
0.5
0.5
0.5
0.5
0.5
0.5
0.5
0.5
0.5
0.5
0.5
0.5
0.5
0.5
0.5
0.5
0.5

SCALARS name double
LOOKUP_TABLE default
21
15
26
2
11
1
16
31
3
23
0
29
10
4
8
13
28
6
7
20
27
14
22
24
17
5
25
12
9
18
19
30

SCALARS interaction_phenotype double
LOOKUP_TABLE default
0
0
0
0
0
0
0
0
0
0
0
0
0
0
0
0
0
0
0
0
0
0
0
0
0
0
0
0
0
0
0
0

SCALARS vessel_interaction double
LOOKUP_TABLE default
0
0
0
0
0
0
0
0
0
0
0
0
0
0
0
0
0
0
0
0
0
0
0
0
0
0
0
0
0
0
0
0

SCALARS is_follower double
LOOKUP_TABLE default
1
1
1
1
1
1
1
1
1
1
1
1
1
1
1
1
1
1
1
1
1
1
1
1
1
1
1
1
1
1
1
1

SCALARS polarised double
LOOKUP_TABLE default
0
0
0
0
0
0
0
0
0
0
0
0
0
0
0
0
0
0
0
0
0
0
0
0
0
0
0
0
0
0
0
0

