# vtk DataFile Version 2.0
Unstructured grid legacy vtk file with point scalar data
ASCII

DATASET UNSTRUCTURED_GRID
POINTS 20 double
81.5981 105.91 100.95
89.3722 103.382 100.173
89.9076 97.3551 109.684
98.2019 93.6249 97.6179
95.3663 101.512 95.2103
102.725 101.074 99.2247
95.9809 99.0972 103.736
100.273 103.777 109.35
103.875 96.776 106.366
103.236 97.8937 114.534
98.0862 104.064 117.676
96.1996 107.454 89.0163
97.4951 107.137 101.547
100.022 112.119 109.95
100.133 114.909 102.065
108.264 100.643 93.1611
105.476 108.959 98.3811
107.802 106.521 110.604
107.055 112.099 105.816
108.535 107.73 116.196

POINT_DATA 20
SCALARS radius double
LOOKUP_TABLE default
5.04636
5.04636
5.03728
5.03728
5.09809
5.08666
5.03728
5.04636
5.04636
5.04636
5.04636
5.08666
5.09809
5.0053
5.0053
5.02287
5.03728
4.2053
5.03728
4.2053

SCALARS status double
LOOKUP_TABLE default
1
1
1
1
1
1
1
1
1
1
1
1
1
1
1
1
1
1
1
1

SCALARS concentration double
LOOKUP_TABLE default
38.9575
38.9575
38.9575
38.9575
38.9575
38.9575
38.9575
38.9575
38.9575
38.9575
38.9575
38.9575
38.9575
38.9575
38.9575
38.9575
38.9575
38.9575
38.9575
38.9575

SCALARS fibres double
LOOKUP_TABLE default
0
0
0
0
0
0
0
0
0
0
0
0
0
0
0
0
0
0
0
0

SCALARS phenot double
LOOKUP_TABLE default
7
7
7
7
7
7
7
7
7
7
7
7
7
7
7
7
7
7
7
7

SCALARS cont_pheno double
LOOKUP_TABLE default
0.5
0.5
0.5
0.5
0.5
0.5
0.5
0.5
0.5
0.5
0.5
0.5
0.5
0.5
0.5
0.5
0.5
0.5
0.5
0.5

SCALARS name double
LOOKUP_TABLE default
15
11
1
3
2
0
10
4
8
13
16
6
7
14
17
5
9
12
18
19

SCALARS interaction_phenotype double
LOOKUP_TABLE default
0
0
0
0
0
0
0
0
0
0
0
0
0
0
0
0
0
0
0
0

SCALARS vessel_interaction double
LOOKUP_TABLE default
0
0
0
0
0
0
0
0
0
0
0
0
0
0
0
0
0
0
0
0

SCALARS is_follower double
LOOKUP_TABLE default
1
1
1
1
1
1
1
1
1
1
1
1
1
1
1
1
1
1
1
1

SCALARS polarised double
LOOKUP_TABLE default
0
0
0
0
0
0
0
0
0
0
0
0
0
0
0
0
0
0
0
0

