# vtk DataFile Version 2.0
Unstructured grid legacy vtk file with point scalar data
ASCII

DATASET UNSTRUCTURED_GRID
POINTS 50 double
72.6981 111.113 100.154
81.0377 103.795 95.4695
78.1172 103.068 108.199
80.2246 107.165 99.1827
78.6015 111.037 105.903
88.0801 94.6139 113.115
94.6338 101.81 91.4746
88.8853 104.341 97.9188
95.1677 98.986 99.4629
90.4144 98.9333 107.028
87.0195 100.306 117.529
93.4539 102.952 121.703
91.0494 109.699 90.8913
94.67 105.184 104.513
91.9613 112.217 98.7873
94.6831 108.525 114.796
97.587 93.3692 94.263
103.975 92.3097 100.465
98.0451 95.0144 105.991
103.19 99.3764 96.1615
102.237 102.44 103.234
98.8786 102.422 110.787
102.72 97.0364 112.914
101.322 96.2107 118.75
101.654 103.082 122.185
96.4735 110.917 85.5495
98.9271 107.407 88.2039
98.7153 106.787 96.9666
97.7048 111.372 102.046
97.2102 111.226 107.255
102.496 109.836 113.067
101.558 111.148 120.102
99.0068 114.584 93.939
102.634 115.976 101.655
96.0013 119.433 101.046
97.974 119.015 109.465
106.609 102.525 81.5227
111.356 97.3384 93.8275
105.296 101.949 89.4088
105.751 96.7451 107.004
110.482 101.585 110.971
113.472 106.488 78.9193
107.984 106.587 94.6591
106.494 110.194 100.889
109.769 113.688 107.471
105.529 106.785 107.668
109.845 108.65 112.742
109.16 106.065 119.955
107.616 112.424 125.003
115.07 110.421 115.9

POINT_DATA 50
SCALARS radius double
LOOKUP_TABLE default
5.07271
3.97271
5.02621
4.07271
5.02621
4.84636
5.09809
5.04636
5.04636
5.09809
4.94636
5.07271
5.09809
5.04636
5.09809
5.07271
5.03728
5.0053
5.09809
5.08666
5.07271
5.0053
4.4053
4.5053
5.0053
4.09809
4.09809
5.09809
4.12621
4.22621
5.02621
5.02621
5.07271
5.04636
5.02621
5.02621
5.09809
5.08666
5.03728
5.0053
5.0053
5.09809
5.03728
5.04636
5.09809
5.07271
4.52621
5.02621
5.02621
4.62621

SCALARS status double
LOOKUP_TABLE default
1
1
1
1
1
1
1
1
1
1
1
1
1
1
1
1
1
1
1
1
1
1
1
1
1
1
1
1
1
1
1
1
1
1
1
1
1
1
1
1
1
1
1
1
1
1
1
1
1
1

SCALARS concentration double
LOOKUP_TABLE default
38.9575
38.9575
38.9575
38.9575
38.9575
38.9575
38.9575
38.9575
38.9575
38.9575
38.9575
38.9575
38.9575
38.9575
38.9575
38.9575
38.9575
38.9575
38.9575
38.9575
38.9575
38.9575
38.9575
38.9575
38.9575
38.9575
38.9575
38.9575
38.9575
38.9575
38.9575
38.9575
38.9575
38.9575
38.9575
38.9575
38.9575
38.9575
38.9575
38.9575
38.9575
38.9575
38.9575
38.9575
38.9575
38.9575
38.9575
38.9575
38.9575
38.9575

SCALARS fibres double
LOOKUP_TABLE default
0
0
0
0
0
0
0
0
0
0
0
0
0
0
0
0
0
0
0
0
0
0
0
0
0
0
0
0
0
0
0
0
0
0
0
0
0
0
0
0
0
0
0
0
0
0
0
0
0
0

SCALARS phenot double
LOOKUP_TABLE default
7
7
7
7
7
7
7
7
7
7
7
7
7
7
7
7
7
7
7
7
7
7
7
7
7
7
7
7
7
7
7
7
7
7
7
7
7
7
7
7
7
7
7
7
7
7
7
7
7
7

SCALARS cont_pheno double
LOOKUP_TABLE default
0.5
0.5
0.5
0.5
0.5
0.5
0.5
0.5
0.5
0.5
0.5
0.5
0.5
0.5
0.5
0.5
0.5
0.5
0.5
0.5
0.5
0.5
0.5
0.5
0.5
0.5
0.5
0.5
0.5
0.5
0.5
0.5
0.5
0.5
0.5
0.5
0.5
0.5
0.5
0.5
0.5
0.5
0.5
0.5
0.5
0.5
0.5
0.5
0.5
0.5

SCALARS name double
LOOKUP_TABLE default
21
48
26
15
40
44
2
11
37
1
35
16
31
29
36
32
3
23
10
0
20
4
46
13
28
49
6
7
47
22
14
38
24
27
17
33
34
5
25
8
12
41
9
43
18
39
45
42
19
30

SCALARS interaction_phenotype double
LOOKUP_TABLE default
0
0
0
0
0
0
0
0
0
0
0
0
0
0
0
0
0
0
0
0
0
0
0
0
0
0
0
0
0
0
0
0
0
0
0
0
0
0
0
0
0
0
0
0
0
0
0
0
0
0

SCALARS vessel_interaction double
LOOKUP_TABLE default
0
0
0
0
0
0
0
0
0
0
0
0
0
0
0
0
0
0
0
0
0
0
0
0
0
0
0
0
0
0
0
0
0
0
0
0
0
0
0
0
0
0
0
0
0
0
0
0
0
0

SCALARS is_follower double
LOOKUP_TABLE default
1
1
1
1
1
1
1
1
1
1
1
1
1
1
1
1
1
1
1
1
1
1
1
1
1
1
1
1
1
1
1
1
1
1
1
1
1
1
1
1
1
1
1
1
1
1
1
1
1
1

SCALARS polarised double
LOOKUP_TABLE default
0
0
0
0
0
0
0
0
0
0
0
0
0
0
0
0
0
0
0
0
0
0
0
0
0
0
0
0
0
0
0
0
0
0
0
0
0
0
0
0
0
0
0
0
0
0
0
0
0
0

