# vtk DataFile Version 2.0
Unstructured grid legacy vtk file with point scalar data
ASCII

DATASET UNSTRUCTURED_GRID
POINTS 27 double
74.818 109.701 100.919
82.417 105.401 100.422
77.9549 105.53 106.669
94.6899 101.002 94.2873
90.1411 103.33 100.797
91.0955 97.2132 109.223
97.5115 93.8113 96.4909
102.859 93.9783 102.677
102.458 101.34 97.7437
96.7741 99.4541 103.22
98.881 103.082 110.729
103.697 98.3943 115.391
97.8248 103.681 119.03
96.2715 107.879 88.9998
96.9359 107.545 98.8729
103.185 105.032 104.586
100.646 111.507 113.437
97.3413 110.306 106.182
99.5683 117.314 103.586
100.597 116.042 95.8713
109.526 99.3532 94.2484
107.416 101.891 86.4667
105.864 97.9078 107.84
108.422 104.623 110.733
105.071 109.649 98.0756
106.553 112.441 106.522
108.742 108.006 118.355

POINT_DATA 27
SCALARS radius double
LOOKUP_TABLE default
4.67271
5.0053
4.67271
5.09809
5.04636
5.03728
5.03728
5.0053
5.08666
5.03728
5.0053
5.04636
5.04636
5.08666
5.09809
5.0053
5.07271
5.07271
5.07271
5.07271
5.08666
5.08666
5.0053
5.0053
5.03728
5.03728
5.0053

SCALARS status double
LOOKUP_TABLE default
1
1
1
1
1
1
1
1
1
1
1
1
1
1
1
1
1
1
1
1
1
1
1
1
1
1
1

SCALARS concentration double
LOOKUP_TABLE default
38.9575
38.9575
38.9575
38.9575
38.9575
38.9575
38.9575
38.9575
38.9575
38.9575
38.9575
38.9575
38.9575
38.9575
38.9575
38.9575
38.9575
38.9575
38.9575
38.9575
38.9575
38.9575
38.9575
38.9575
38.9575
38.9575
38.9575

SCALARS fibres double
LOOKUP_TABLE default
0
0
0
0
0
0
0
0
0
0
0
0
0
0
0
0
0
0
0
0
0
0
0
0
0
0
0

SCALARS phenot double
LOOKUP_TABLE default
7
7
7
7
7
7
7
7
7
7
7
7
7
7
7
7
7
7
7
7
7
7
7
7
7
7
7

SCALARS cont_pheno double
LOOKUP_TABLE default
0.5
0.5
0.5
0.5
0.5
0.5
0.5
0.5
0.5
0.5
0.5
0.5
0.5
0.5
0.5
0.5
0.5
0.5
0.5
0.5
0.5
0.5
0.5
0.5
0.5
0.5
0.5

SCALARS name double
LOOKUP_TABLE default
21
15
26
2
11
1
3
23
0
10
4
13
16
6
7
20
14
22
17
24
5
25
8
12
9
18
19

SCALARS interaction_phenotype double
LOOKUP_TABLE default
0
0
0
0
0
0
0
0
0
0
0
0
0
0
0
0
0
0
0
0
0
0
0
0
0
0
0

SCALARS vessel_interaction double
LOOKUP_TABLE default
0
0
0
0
0
0
0
0
0
0
0
0
0
0
0
0
0
0
0
0
0
0
0
0
0
0
0

SCALARS is_follower double
LOOKUP_TABLE default
1
1
1
1
1
1
1
1
1
1
1
1
1
1
1
1
1
1
1
1
1
1
1
1
1
1
1

SCALARS polarised double
LOOKUP_TABLE default
0
0
0
0
0
0
0
0
0
0
0
0
0
0
0
0
0
0
0
0
0
0
0
0
0
0
0

