# vtk DataFile Version 2.0
Unstructured grid legacy vtk file with point scalar data
ASCII

DATASET UNSTRUCTURED_GRID
POINTS 19 double
80.8954 105.615 100.899
95.2282 101.433 94.7485
89.4004 103.317 100.36
89.8404 97.4206 110.403
98.3978 93.958 97.9373
102.517 101.418 99.1513
95.8365 98.9627 104.074
100.318 103.887 109.329
104.152 97.13 106.317
103.374 97.7031 115.219
97.9844 104.012 117.186
96.3885 107.163 88.4912
96.9626 107.151 101.465
100.079 111.769 110.284
100.444 114.452 102.546
108.189 100.189 93.2427
105.864 108.595 99.5036
107.74 107.322 111.152
106.83 110.799 105.533

POINT_DATA 19
SCALARS radius double
LOOKUP_TABLE default
5.04636
5.09809
5.04636
5.03728
5.03728
5.08666
5.03728
5.04636
5.04636
5.04636
5.04636
5.08666
5.09809
5.0053
5.0053
5.02287
4.53728
5.04636
4.53728

SCALARS status double
LOOKUP_TABLE default
1
1
1
1
1
1
1
1
1
1
1
1
1
1
1
1
1
1
1

SCALARS concentration double
LOOKUP_TABLE default
38.9575
38.9575
38.9575
38.9575
38.9575
38.9575
38.9575
38.9575
38.9575
38.9575
38.9575
38.9575
38.9575
38.9575
38.9575
38.9575
38.9575
38.9575
38.9575

SCALARS fibres double
LOOKUP_TABLE default
0
0
0
0
0
0
0
0
0
0
0
0
0
0
0
0
0
0
0

SCALARS phenot double
LOOKUP_TABLE default
7
7
7
7
7
7
7
7
7
7
7
7
7
7
7
7
7
7
7

SCALARS cont_pheno double
LOOKUP_TABLE default
0.5
0.5
0.5
0.5
0.5
0.5
0.5
0.5
0.5
0.5
0.5
0.5
0.5
0.5
0.5
0.5
0.5
0.5
0.5

SCALARS name double
LOOKUP_TABLE default
15
2
11
1
3
0
10
4
8
13
16
6
7
14
17
5
9
12
18

SCALARS interaction_phenotype double
LOOKUP_TABLE default
0
0
0
0
0
0
0
0
0
0
0
0
0
0
0
0
0
0
0

SCALARS vessel_interaction double
LOOKUP_TABLE default
0
0
0
0
0
0
0
0
0
0
0
0
0
0
0
0
0
0
0

SCALARS is_follower double
LOOKUP_TABLE default
1
1
1
1
1
1
1
1
1
1
1
1
1
1
1
1
1
1
1

SCALARS polarised double
LOOKUP_TABLE default
0
0
0
0
0
0
0
0
0
0
0
0
0
0
0
0
0
0
0

