# vtk DataFile Version 2.0
Unstructured grid legacy vtk file with point scalar data
ASCII

DATASET UNSTRUCTURED_GRID
POINTS 61 double
71.057 111.428 94.0571
71.3951 110.865 100.964
81.4579 102.408 93.0928
78.9255 103.635 109.677
82.0991 108.194 99.0327
76.5944 108.179 104.489
80.0734 113.001 108.725
84.913 110.218 104.94
87.3305 94.1637 112.643
93.5953 101 91.1482
89.0886 104.041 97.4778
95.1294 98.4263 99.1636
91.2906 98.5242 106.85
86.3932 100.385 118.539
93.8589 102.707 121.982
91.9833 109.702 90.1739
94.456 105.059 103.594
89.6349 112.164 98.6286
89.8919 109.695 105.674
95.2074 112.649 109.098
94.6673 108.276 116.284
97.6954 92.9271 93.6301
102.573 89.8414 98.4431
103.553 89.4617 104.271
99.3841 95.0997 105.811
100.032 94.727 121.081
102.822 99.4562 95.1424
104.673 100.167 87.5553
101.97 102.765 102.443
98.2427 103.555 110.233
102.599 97.3005 113.402
102.35 102.272 122.948
96.0905 112.981 82.4517
100.14 107.322 88.3973
97.3854 106.33 95.7351
99.4389 111.058 102.103
95.8704 113.804 96.1456
102.044 110.975 113.212
101.102 110.621 121.542
99.3336 115.091 91.0807
95.4224 119.457 100.758
104.411 118.976 104.279
102.61 116.755 98.3727
98.4969 120.35 108.655
109.107 94.3808 109.531
106.384 102.96 80.191
110.869 97.1949 93.3058
107.379 96.4605 101.447
111.157 101 113.755
113.908 105.797 78.4155
104.819 111.295 94.3658
109.33 104.995 94.0545
108.003 108.695 101.439
106.214 105.035 108.6
110.833 109.581 113.407
109.941 105.858 120.574
108.761 113.797 120.769
107.118 111.994 128.216
110.663 115.928 100.994
109.659 115.349 108.329
117.508 110.497 118.069

POINT_DATA 61
SCALARS radius double
LOOKUP_TABLE default
4.82621
4.72621
5.07271
5.02621
5.07271
4.88931
4.98931
3.97271
5.04636
5.09809
5.04636
5.04636
5.09809
5.04636
5.07271
5.09809
5.0053
5.09809
4.07271
5.02621
5.07271
5.03728
4.17271
4.17271
5.09809
5.0053
5.08666
5.03728
5.07271
5.0053
5.0053
5.0053
5.09809
5.09809
5.09809
5.02621
4.62621
5.02621
5.02621
4.72621
5.02621
4.5053
4.6053
5.02621
5.07271
5.09809
5.08666
5.07271
5.0053
5.09809
5.0053
5.03728
5.0053
5.07271
5.02621
5.02621
4.98931
5.08931
4.74636
4.84636
5.02621

SCALARS status double
LOOKUP_TABLE default
1
1
1
1
1
1
1
1
1
1
1
1
1
1
1
1
1
1
1
1
1
1
1
1
1
1
1
1
1
1
1
1
1
1
1
1
1
1
1
1
1
1
1
1
1
1
1
1
1
1
1
1
1
1
1
1
1
1
1
1
1

SCALARS concentration double
LOOKUP_TABLE default
38.9575
38.9575
38.9575
38.9575
38.9575
38.9575
38.9575
38.9575
38.9575
38.9575
38.9575
38.9575
38.9575
38.9575
38.9575
38.9575
38.9575
38.9575
38.9575
38.9575
38.9575
38.9575
38.9575
38.9575
38.9575
38.9575
38.9575
38.9575
38.9575
38.9575
38.9575
38.9575
38.9575
38.9575
38.9575
38.9575
38.9575
38.9575
38.9575
38.9575
38.9575
38.9575
38.9575
38.9575
38.9575
38.9575
38.9575
38.9575
38.9575
38.9575
38.9575
38.9575
38.9575
38.9575
38.9575
38.9575
38.9575
38.9575
38.9575
38.9575
38.9575

SCALARS fibres double
LOOKUP_TABLE default
0
0
0
0
0
0
0
0
0
0
0
0
0
0
0
0
0
0
0
0
0
0
0
0
0
0
0
0
0
0
0
0
0
0
0
0
0
0
0
0
0
0
0
0
0
0
0
0
0
0
0
0
0
0
0
0
0
0
0
0
0

SCALARS phenot double
LOOKUP_TABLE default
7
7
7
7
7
7
7
7
7
7
7
7
7
7
7
7
7
7
7
7
7
7
7
7
7
7
7
7
7
7
7
7
7
7
7
7
7
7
7
7
7
7
7
7
7
7
7
7
7
7
7
7
7
7
7
7
7
7
7
7
7

SCALARS cont_pheno double
LOOKUP_TABLE default
0.5
0.5
0.5
0.5
0.5
0.5
0.5
0.5
0.5
0.5
0.5
0.5
0.5
0.5
0.5
0.5
0.5
0.5
0.5
0.5
0.5
0.5
0.5
0.5
0.5
0.5
0.5
0.5
0.5
0.5
0.5
0.5
0.5
0.5
0.5
0.5
0.5
0.5
0.5
0.5
0.5
0.5
0.5
0.5
0.5
0.5
0.5
0.5
0.5
0.5
0.5
0.5
0.5
0.5
0.5
0.5
0.5
0.5
0.5
0.5
0.5

SCALARS name double
LOOKUP_TABLE default
55
21
48
26
15
54
40
60
44
2
11
37
1
35
16
31
29
36
52
22
32
3
23
59
10
13
0
25
20
4
46
28
49
6
7
47
57
14
38
24
17
27
58
33
8
34
5
50
12
41
51
9
43
39
45
42
53
19
56
18
30

SCALARS interaction_phenotype double
LOOKUP_TABLE default
0
0
0
0
0
0
0
0
0
0
0
0
0
0
0
0
0
0
0
0
0
0
0
0
0
0
0
0
0
0
0
0
0
0
0
0
0
0
0
0
0
0
0
0
0
0
0
0
0
0
0
0
0
0
0
0
0
0
0
0
0

SCALARS vessel_interaction double
LOOKUP_TABLE default
0
0
0
0
0
0
0
0
0
0
0
0
0
0
0
0
0
0
0
0
0
0
0
0
0
0
0
0
0
0
0
0
0
0
0
0
0
0
0
0
0
0
0
0
0
0
0
0
0
0
0
0
0
0
0
0
0
0
0
0
0

SCALARS is_follower double
LOOKUP_TABLE default
1
1
1
1
1
1
1
1
1
1
1
1
1
1
1
1
1
1
1
1
1
1
1
1
1
1
1
1
1
1
1
1
1
1
1
1
1
1
1
1
1
1
1
1
1
1
1
1
1
1
1
1
1
1
1
1
1
1
1
1
1

SCALARS polarised double
LOOKUP_TABLE default
0
0
0
0
0
0
0
0
0
0
0
0
0
0
0
0
0
0
0
0
0
0
0
0
0
0
0
0
0
0
0
0
0
0
0
0
0
0
0
0
0
0
0
0
0
0
0
0
0
0
0
0
0
0
0
0
0
0
0
0
0

