# vtk DataFile Version 2.0
Unstructured grid legacy vtk file with point scalar data
ASCII

DATASET UNSTRUCTURED_GRID
POINTS 7 double
95.1095 104.199 91.4278
95.0475 103.749 100.428
91.2084 98.8026 106.841
96.6436 95.3309 100.702
102.768 100.999 102.609
98.4257 101.861 110.124
106.756 100.678 95.0631

POINT_DATA 7
SCALARS radius double
LOOKUP_TABLE default
5.08666
5.08666
5.03728
5.08666
5.02287
5.03728
5.02287

SCALARS status double
LOOKUP_TABLE default
1
1
1
1
1
1
1

SCALARS concentration double
LOOKUP_TABLE default
38.9575
38.9575
38.9575
38.9575
38.9575
38.9575
38.9575

SCALARS fibres double
LOOKUP_TABLE default
0
0
0
0
0
0
0

SCALARS phenot double
LOOKUP_TABLE default
7
7
7
7
7
7
7

SCALARS cont_pheno double
LOOKUP_TABLE default
0.5
0.5
0.5
0.5
0.5
0.5
0.5

SCALARS name double
LOOKUP_TABLE default
6
2
1
3
0
4
5

SCALARS interaction_phenotype double
LOOKUP_TABLE default
0
0
0
0
0
0
0

SCALARS vessel_interaction double
LOOKUP_TABLE default
0
0
0
0
0
0
0

SCALARS is_follower double
LOOKUP_TABLE default
1
1
1
1
1
1
1

SCALARS polarised double
LOOKUP_TABLE default
0
0
0
0
0
0
0

