# vtk DataFile Version 2.0
Unstructured grid legacy vtk file with point scalar data
ASCII

DATASET UNSTRUCTURED_GRID
POINTS 19 double
80.9953 105.584 100.871
95.229 101.429 94.9215
89.493 103.221 100.213
89.8523 97.5447 110.236
98.475 94.0278 98.038
102.692 101.321 99.245
96.0657 98.9914 104.103
100.276 103.883 109.192
104.147 97.0353 106.216
103.296 97.8276 115.249
97.9604 103.932 117.108
96.4098 107.302 88.6288
96.8529 107.052 101.616
100.345 114.294 102.672
100.162 111.806 110.249
108.174 100.252 93.1231
105.76 108.566 99.4729
107.779 107.236 111.252
106.648 111.082 105.62

POINT_DATA 19
SCALARS radius double
LOOKUP_TABLE default
5.04636
5.09809
5.04636
5.03728
5.03728
5.08666
5.03728
5.04636
5.04636
5.04636
5.04636
5.08666
5.09809
5.0053
5.0053
5.02287
4.63728
5.04636
4.63728

SCALARS status double
LOOKUP_TABLE default
1
1
1
1
1
1
1
1
1
1
1
1
1
1
1
1
1
1
1

SCALARS concentration double
LOOKUP_TABLE default
38.9575
38.9575
38.9575
38.9575
38.9575
38.9575
38.9575
38.9575
38.9575
38.9575
38.9575
38.9575
38.9575
38.9575
38.9575
38.9575
38.9575
38.9575
38.9575

SCALARS fibres double
LOOKUP_TABLE default
0
0
0
0
0
0
0
0
0
0
0
0
0
0
0
0
0
0
0

SCALARS phenot double
LOOKUP_TABLE default
7
7
7
7
7
7
7
7
7
7
7
7
7
7
7
7
7
7
7

SCALARS cont_pheno double
LOOKUP_TABLE default
0.5
0.5
0.5
0.5
0.5
0.5
0.5
0.5
0.5
0.5
0.5
0.5
0.5
0.5
0.5
0.5
0.5
0.5
0.5

SCALARS name double
LOOKUP_TABLE default
15
2
11
1
3
0
10
4
8
13
16
6
7
17
14
5
9
12
18

SCALARS interaction_phenotype double
LOOKUP_TABLE default
0
0
0
0
0
0
0
0
0
0
0
0
0
0
0
0
0
0
0

SCALARS vessel_interaction double
LOOKUP_TABLE default
0
0
0
0
0
0
0
0
0
0
0
0
0
0
0
0
0
0
0

SCALARS is_follower double
LOOKUP_TABLE default
1
1
1
1
1
1
1
1
1
1
1
1
1
1
1
1
1
1
1

SCALARS polarised double
LOOKUP_TABLE default
0
0
0
0
0
0
0
0
0
0
0
0
0
0
0
0
0
0
0

