# vtk DataFile Version 2.0
Unstructured grid legacy vtk file with point scalar data
ASCII

DATASET UNSTRUCTURED_GRID
POINTS 38 double
73.7306 110.692 101.511
80.9521 106.967 99.0995
77.974 105.158 107.057
94.8509 101.866 93.0335
88.6154 103.879 98.9437
91.3488 98.2603 108.431
88.5636 99.4292 114.676
93.2703 102.378 120.72
91.7789 110.177 92.0665
93.539 111.436 97.0263
94.9923 108.11 115.251
97.5579 94.0372 95.366
103.257 92.82 100.939
96.9536 94.4098 106.167
102.542 100.649 97.2994
96.0747 102.036 103.784
95.7448 101.976 98.856
98.3264 102.243 109.983
101.699 97.2573 116.27
101.194 104.589 120.886
98.3578 107.919 87.6292
99.0241 108.209 98.0242
103.375 105.518 104.299
103.719 113.938 101.631
97.0391 110.5 106.687
103.434 109.004 114.291
99.5948 115.68 93.7853
96.795 118.819 101.119
97.2715 119.285 109.628
108.405 103.783 81.0385
110.417 97.9408 94.5764
105.906 101.781 88.8259
104.896 97.2351 108.186
108.673 104.019 110.066
107.05 107.48 96.8655
108.275 112.06 108.177
106.879 110.63 122.102
112.369 109.268 115.417

POINT_DATA 38
SCALARS radius double
LOOKUP_TABLE default
5.07271
5.0053
5.07271
5.09809
5.04636
4.39809
4.49809
5.07271
4.19809
4.19809
5.07271
5.03728
5.0053
5.09809
5.08666
4.24636
4.24636
5.0053
5.04636
5.0053
5.03728
5.09809
5.0053
5.09809
5.07271
5.07271
5.07271
5.02621
5.02621
5.03728
5.08666
5.03728
5.0053
5.0053
5.03728
5.09809
5.07271
5.07271

SCALARS status double
LOOKUP_TABLE default
1
1
1
1
1
1
1
1
1
1
1
1
1
1
1
1
1
1
1
1
1
1
1
1
1
1
1
1
1
1
1
1
1
1
1
1
1
1

SCALARS concentration double
LOOKUP_TABLE default
38.9575
38.9575
38.9575
38.9575
38.9575
38.9575
38.9575
38.9575
38.9575
38.9575
38.9575
38.9575
38.9575
38.9575
38.9575
38.9575
38.9575
38.9575
38.9575
38.9575
38.9575
38.9575
38.9575
38.9575
38.9575
38.9575
38.9575
38.9575
38.9575
38.9575
38.9575
38.9575
38.9575
38.9575
38.9575
38.9575
38.9575
38.9575

SCALARS fibres double
LOOKUP_TABLE default
0
0
0
0
0
0
0
0
0
0
0
0
0
0
0
0
0
0
0
0
0
0
0
0
0
0
0
0
0
0
0
0
0
0
0
0
0
0

SCALARS phenot double
LOOKUP_TABLE default
7
7
7
7
7
7
7
7
7
7
7
7
7
7
7
7
7
7
7
7
7
7
7
7
7
7
7
7
7
7
7
7
7
7
7
7
7
7

SCALARS cont_pheno double
LOOKUP_TABLE default
0.5
0.5
0.5
0.5
0.5
0.5
0.5
0.5
0.5
0.5
0.5
0.5
0.5
0.5
0.5
0.5
0.5
0.5
0.5
0.5
0.5
0.5
0.5
0.5
0.5
0.5
0.5
0.5
0.5
0.5
0.5
0.5
0.5
0.5
0.5
0.5
0.5
0.5

SCALARS name double
LOOKUP_TABLE default
21
15
26
2
11
1
35
16
31
36
32
3
23
10
0
29
37
4
13
28
6
7
20
27
22
14
24
17
33
34
5
25
8
12
9
18
19
30

SCALARS interaction_phenotype double
LOOKUP_TABLE default
0
0
0
0
0
0
0
0
0
0
0
0
0
0
0
0
0
0
0
0
0
0
0
0
0
0
0
0
0
0
0
0
0
0
0
0
0
0

SCALARS vessel_interaction double
LOOKUP_TABLE default
0
0
0
0
0
0
0
0
0
0
0
0
0
0
0
0
0
0
0
0
0
0
0
0
0
0
0
0
0
0
0
0
0
0
0
0
0
0

SCALARS is_follower double
LOOKUP_TABLE default
1
1
1
1
1
1
1
1
1
1
1
1
1
1
1
1
1
1
1
1
1
1
1
1
1
1
1
1
1
1
1
1
1
1
1
1
1
1

SCALARS polarised double
LOOKUP_TABLE default
0
0
0
0
0
0
0
0
0
0
0
0
0
0
0
0
0
0
0
0
0
0
0
0
0
0
0
0
0
0
0
0
0
0
0
0
0
0

