# vtk DataFile Version 2.0
Unstructured grid legacy vtk file with point scalar data
ASCII

DATASET UNSTRUCTURED_GRID
POINTS 34 double
74.7037 110.562 101.371
81.2987 105.72 100.273
77.6804 105.105 107.511
94.5672 101.715 93.678
88.5246 103.599 99.8335
90.6401 97.612 110.331
94.6792 104.325 118.919
93.0392 110.189 92.9986
97.833 93.42 95.2153
103.555 92.6751 101.075
102.501 100.73 97.3644
95.7225 102.76 102.622
97.039 95.4687 105.607
97.8912 102.431 110.461
104.714 96.9884 108.312
101.904 98.087 116.308
102.232 104.443 121.57
97.7855 108.036 87.9123
98.4923 108.739 98.5442
103.375 105.487 104.245
103.801 113.828 102.119
102.201 109.549 114.223
97.1594 110.478 106.365
97.3976 106.618 115.616
100.193 115.754 94.3398
97.677 118.519 102.468
97.4364 119.374 107.426
110.208 98.3296 94.3464
107.395 102.096 86.9751
108.238 104.096 110.094
106.495 108.031 96.8728
108.042 112.339 108.835
107.052 110.65 121.516
111.679 108.579 115.324

POINT_DATA 34
SCALARS radius double
LOOKUP_TABLE default
5.07271
5.0053
5.07271
5.09809
5.04636
5.03728
4.17271
4.73728
5.03728
5.0053
5.08666
5.09809
5.09809
5.0053
5.0053
5.04636
5.0053
4.63728
5.09809
5.0053
5.09809
5.07271
5.07271
4.17271
5.07271
4.12621
4.12621
5.08666
5.08666
5.0053
5.03728
5.09809
5.07271
5.07271

SCALARS status double
LOOKUP_TABLE default
1
1
1
1
1
1
1
1
1
1
1
1
1
1
1
1
1
1
1
1
1
1
1
1
1
1
1
1
1
1
1
1
1
1

SCALARS concentration double
LOOKUP_TABLE default
38.9575
38.9575
38.9575
38.9575
38.9575
38.9575
38.9575
38.9575
38.9575
38.9575
38.9575
38.9575
38.9575
38.9575
38.9575
38.9575
38.9575
38.9575
38.9575
38.9575
38.9575
38.9575
38.9575
38.9575
38.9575
38.9575
38.9575
38.9575
38.9575
38.9575
38.9575
38.9575
38.9575
38.9575

SCALARS fibres double
LOOKUP_TABLE default
0
0
0
0
0
0
0
0
0
0
0
0
0
0
0
0
0
0
0
0
0
0
0
0
0
0
0
0
0
0
0
0
0
0

SCALARS phenot double
LOOKUP_TABLE default
7
7
7
7
7
7
7
7
7
7
7
7
7
7
7
7
7
7
7
7
7
7
7
7
7
7
7
7
7
7
7
7
7
7

SCALARS cont_pheno double
LOOKUP_TABLE default
0.5
0.5
0.5
0.5
0.5
0.5
0.5
0.5
0.5
0.5
0.5
0.5
0.5
0.5
0.5
0.5
0.5
0.5
0.5
0.5
0.5
0.5
0.5
0.5
0.5
0.5
0.5
0.5
0.5
0.5
0.5
0.5
0.5
0.5

SCALARS name double
LOOKUP_TABLE default
21
15
26
2
11
1
16
31
3
23
0
29
10
4
8
13
28
6
7
20
27
14
22
32
24
17
33
5
25
12
9
18
19
30

SCALARS interaction_phenotype double
LOOKUP_TABLE default
0
0
0
0
0
0
0
0
0
0
0
0
0
0
0
0
0
0
0
0
0
0
0
0
0
0
0
0
0
0
0
0
0
0

SCALARS vessel_interaction double
LOOKUP_TABLE default
0
0
0
0
0
0
0
0
0
0
0
0
0
0
0
0
0
0
0
0
0
0
0
0
0
0
0
0
0
0
0
0
0
0

SCALARS is_follower double
LOOKUP_TABLE default
1
1
1
1
1
1
1
1
1
1
1
1
1
1
1
1
1
1
1
1
1
1
1
1
1
1
1
1
1
1
1
1
1
1

SCALARS polarised double
LOOKUP_TABLE default
0
0
0
0
0
0
0
0
0
0
0
0
0
0
0
0
0
0
0
0
0
0
0
0
0
0
0
0
0
0
0
0
0
0

