# vtk DataFile Version 2.0
Unstructured grid legacy vtk file with point scalar data
ASCII

DATASET UNSTRUCTURED_GRID
POINTS 752 double
53.943 96.6543 109.337
52.1124 104.646 110.254
53.3372 110.719 90.8413
55.2739 106.809 97.8719
56.1827 110.182 105.288
56.1009 109.15 119.006
56.8972 114.461 93.3918
55.2682 116.316 112.1
63.7094 81.7437 96.3219
65.5852 95.1061 91.0343
61.2392 86.8233 99.4575
59.6364 92.1479 104.283
61.5825 95.0199 112.019
66.4274 92.6522 119.43
59.9459 95.3052 85.0126
61.8391 102.692 81.9049
57.6274 97.8488 92.2787
66.5865 102.52 88.6283
59.0733 99.4606 100.15
65.52 98.0628 104.432
66.4547 100.537 96.643
59.2526 101.355 108.321
65.4947 102.562 113.842
62.8892 104.119 106.062
57.4812 100.997 116.415
63.1511 113.558 75.8
66.1045 110.117 82.109
61.1272 107.192 92.905
62.7095 105.072 100.777
63.8525 109.99 102.703
59.3717 107.864 111.438
59.3403 114.254 115.069
64.5004 111.393 115.828
61.9142 105.332 123.525
64.0705 111.789 129.673
66.3859 105.186 134.403
63.1153 119.985 82.4289
59.3292 121.04 90.422
64.4487 116.497 94.0787
59.8583 114.406 99.9296
60.2232 122.236 98.9943
63.3144 114.638 108.2
58.8462 121.497 107.373
66.6735 122.531 110.809
66.6297 119.196 118.468
72.0025 83.9182 84.0933
73.5425 82.2476 92.8066
69.9792 82.5865 97.3904
68.222 85.0531 103.524
76.2193 81.6915 104.155
75.1093 87.5675 70.6799
75.0196 92.8267 77.5166
70.2552 88.565 83.3514
68.0747 87.6819 91.1979
75.7005 89.8625 90.4552
67.042 91.5636 98.6741
71.1689 94.1887 104.309
75.8978 87.3503 97.9391
71.1178 88.4113 103.271
74.3185 88.6554 108.525
69.0682 93.6348 111.66
72.3251 87.2843 122.733
73.6896 85.8998 115.119
70.9333 94.7716 126.34
73.7578 100.626 73.7231
71.623 95.7101 85.5263
71.719 103.87 84.5316
76.2209 100.322 88.026
73.041 95.5435 95.8308
75.0779 102.897 95.4254
72.1023 100.197 108.124
74.3409 103.157 114.365
68.8237 100.79 120.575
73.6339 96.528 116.283
69.3018 103.521 127.136
75.0446 113.22 62.7595
71.4303 105.709 78.462
71.5774 112.917 76.5971
73.7889 111.148 83.6672
67.0547 110.893 89.2341
72.953 107.842 90.7366
70.9975 104.97 101.993
69.0748 113.165 101.729
68.0683 108.188 96.1614
76.002 110.987 97.6158
68.1869 107.777 109.101
75.6822 110.512 105.758
72.0401 113.867 113.018
67.6439 111.615 123.177
70.894 108.174 117.552
72.4284 109.55 130.397
72.9576 109.567 138.45
68.2695 119.169 72.2423
70.975 121.063 79.8512
75.6401 115.36 89.819
69.1951 117.609 86.8296
71.7582 115.934 95.072
69.1263 122.902 97.7708
75.8497 118.293 101.198
70.7684 117.039 107.101
75.0344 115.306 119.337
72.9782 122.662 119.425
72.1345 117.379 125.785
70.1755 116.692 133.042
69.6223 127.108 74.2998
67.0995 124.367 90.7564
69.294 131.573 95.0415
75.5009 126.663 93.8537
72.2996 124.144 104.643
75.1523 129.851 108.015
73.5146 125.959 113.721
74.5135 127.421 125.007
80.237 73.2045 99.4216
77.9408 73.8105 107.365
83.2393 81.2198 81.5486
82.6678 79.7115 89.84
79.4908 80.5567 96.8719
84.1154 78.7409 104.632
81.233 79.2011 112.962
84.1908 81.9349 121.987
82.7633 87.5917 66.4489
81.1403 93.7119 71.0179
81.7702 86.5472 75.5235
83.4214 93.515 79.8515
78.213 87.7584 82.9989
83.2534 87.2545 93.5073
85.136 88.0007 85.8984
80.3281 94.8592 87.0836
77.1217 92.212 102.079
83.4439 86.1231 101.57
83.1321 94.4789 103.118
81.2831 94.0493 95.7075
80.8092 85.7573 109.059
79.2692 95.054 109.5
78.5472 90.5345 113.357
77.4289 93.4859 121.115
82.0731 89.303 116.493
80.2413 87.3721 124.988
77.7326 92.8388 128.017
84.5327 93.99 126.662
78.766 94.3184 134.029
82.1176 88.4598 136.738
81.0836 104.366 74.9012
84.7476 103.295 67.1967
77.8711 99.5278 80.7935
84.9517 100.829 84.6528
81.6701 101.511 92.2493
77.9469 104.752 88.1573
77.8174 99.2732 102.32
83.9959 100.287 98.4905
84.8925 101.641 105.562
79.0369 103.528 108.815
83.406 99.2262 113.567
80.4913 99.3728 117.948
76.6674 103.95 121.925
82.2048 98.1144 124.113
76.3858 100.878 129.883
84.1274 99.815 132.525
79.1753 110.449 55.9408
85.2965 105.898 59.4245
83.6337 113.354 62.6347
79.735 109.724 68.6101
79.7461 111.832 76.4833
79.8659 106.899 82.8689
80.4448 109.447 91.4182
85.5301 112.102 94.6346
80.6819 106.519 99.9285
85.4592 104.876 112.544
82.8964 110.45 108.271
79.0167 109.376 115.086
84.6199 110.529 121.146
78.5584 111.034 125.716
79.7707 107.502 134.563
76.8556 118.758 73.9037
84.1495 116.822 70.0467
83.5554 117.791 79.0661
77.0742 117.744 82.4565
83.3162 114.909 86.6178
80.3943 117.689 94.6075
78.9525 122.332 88.5548
82.5809 114.653 101.68
78.2234 118.211 108.585
85.5599 117.619 108.487
82.1633 116.786 116.072
76.3617 122.071 131.221
79.7369 119.172 124.603
83.2075 115.472 131.125
83.5057 121.931 136.05
82.288 125.412 72.1227
78.916 125.099 80.4465
81.4521 129.621 87.6913
83.7767 128 96.0179
76.7252 130.406 100.527
81.8072 124.888 104.078
81.2087 124.086 113.129
81.9268 130.973 110.579
84.678 124.205 121.067
82.6244 126.702 128.383
82.1048 133.514 69.2162
84.5877 134.663 80.3023
83.4889 135.553 98.6576
83.2078 138.265 109.293
85.465 143.518 113.037
89.3409 75.5874 80.3112
93.6621 73.2866 87.0518
91.0479 70.2215 100.238
90.111 74.3784 107.812
88.2569 83.0881 71.3392
94.5591 82.1701 80.7253
89.9077 80.5054 86.9393
90.8889 83.7188 93.8166
94.0175 76.6207 93.4548
90.8353 82.2048 102.967
87.0261 77.2927 96.9275
88.3301 82.8051 110.702
89.0278 76.7276 116.739
91.142 83.6757 118.483
91.2427 79.5109 125.961
89.2573 91.5596 70.6442
95.2208 93.4559 74.5996
89.3243 88.1091 78.5263
92.0398 89.5185 86.7853
87.1553 94.2391 90.0697
94.9645 92.2592 93.4876
88.9686 89.3787 98.2755
94.6543 94.9322 100.857
89.0394 95.1486 103.618
92.914 89.2707 106.353
86.0683 90.3379 108.224
89.2614 90.3468 114.892
87.5842 89.7989 122.704
94.5059 92.8992 122.332
95.1975 94.0454 115.484
90.6926 86.8832 129.595
88.0188 92.7838 134.337
91.5269 100.604 58.0455
92.8673 100.171 69.1737
86.4948 98.4936 74.4152
90.9427 95.7954 81.4994
92.0888 103.163 76.9831
91.5419 104.428 84.2926
94.6642 97.8849 87.8459
89.4385 102.119 91.4271
91.3075 102.059 101.215
89.1836 96.5196 96.4726
88.3552 96.8108 110.692
95.2198 96.6797 108.075
91.8536 104.22 108.587
88.5512 96.7025 119.455
93.6586 101.49 115.219
94.796 100.768 123.178
86.7117 103.581 119.305
87.7706 102.131 125.965
91.1492 95.4592 127.722
93.5023 102.768 131.143
93.7861 96.5836 135.428
89.7675 112.751 57.2006
91.4463 107.839 64.0997
88.3294 109.357 72.6423
86.3054 109.445 80.371
93.2333 110.719 79.5415
89.6302 110.434 87.8447
87.3844 108.652 102.402
89.7191 106.732 95.9415
88.1851 111.542 113.86
91.2462 111.544 106.447
92.7053 107.3 119.364
86.0115 108.32 129.556
94.0232 108.68 126.478
90.8425 113.981 130.312
87.7067 104.917 137.541
94.3008 108.929 135.786
87.7033 113.116 138.589
95.081 112.804 142.83
89.6148 118.98 63.3857
94.7151 123.021 65.7559
93.3683 114.492 68.4541
93.3576 123.187 69.9893
90.2256 117.754 75.2913
90.4047 117.172 82.8376
86.2207 122.587 86.7123
90.6414 117.997 91.5316
90.8677 114.56 98.6104
86.4051 120.832 98.3827
95.0194 121.499 97.5768
91.6104 118.854 104.153
93.6916 116.732 110.606
93.8079 114.452 118.481
89.2752 119.947 115.662
87.6207 117.381 123.323
93.53 123.443 121.746
88.7189 121.353 129.828
91.5011 120.869 142.386
93.0538 117.197 135.803
89.3999 129.155 68.7876
93.4143 127.335 76.1466
87.3125 132.251 75.9502
94.3852 123.959 84.5389
87.1938 124.917 79.0585
89.0035 130.535 84.6029
90.8159 126.223 92.107
90.4966 126.117 102.003
91.8942 132.175 98.5912
87.9354 124.815 109.023
87.1831 133.17 105.141
94.2525 130.515 107.407
88.6936 127.305 115.914
94.6238 131.419 116.04
91.1182 128.756 127.717
92.8295 126.944 135.935
91.5714 138.193 85.778
87.8809 133.765 91.8556
90.2408 140.471 97.6305
91.4794 138.301 110.958
85.9301 134.581 115.949
90.6164 135.559 122.546
93.7771 135.167 132.405
93.9172 144.576 91.1663
97.7257 66.2698 118.316
99.1304 68.1307 84.4385
99.5947 76.1146 82.0983
96.1709 68.4532 93.1015
101.792 73.572 89.2158
101.235 73.956 96.8669
99.2541 67.0141 100.89
98.2802 74.6545 104.718
97.7345 70.3561 111.2
104.487 71.8476 118.342
95.7182 84.775 73.6403
102.126 76.9753 74.3929
100.586 81.7518 67.8252
102.668 83.6008 78.8845
104.757 79.9898 85.6884
96.9095 83.6469 87.8953
101.543 80.193 92.613
96.6033 79.8974 99.3213
104.265 82.2896 98.993
99.651 83.3433 105.419
95.4204 79.2494 109.854
103.871 82.9606 112.604
96.6742 79.1563 120.92
99.6494 76.7701 114.915
102.098 76.5695 126.32
99.0256 83.4518 128.91
104.531 89.3056 66.9139
101.455 89.5541 74.351
97.0502 89.7411 81.0864
103.16 88.463 85.4773
101.325 87.4948 93.0347
96.3555 87.1373 99.0145
100.311 91.2086 103.84
95.5806 86.166 112.928
100.703 90.362 110.276
95.3695 86.7817 123.366
102.856 94.3014 115.667
100.906 87.5254 118.708
100.045 93.1619 122.965
103.806 89.997 129.934
96.4908 90.4172 132.736
100.966 86.7162 137.554
102.561 104.358 56.132
97.9474 102.271 63.157
99.8948 99.4917 74.7773
103.436 103.78 70.1398
98.1165 101.448 81.7479
101.634 95.9947 83.0518
104.125 101.951 85.5156
101.991 95.3727 90.8574
100.333 102.441 89.5631
96.3512 100.658 95.1818
100.926 95.4797 98.2233
97.9145 101.272 103.154
103.983 104.636 102.492
103.011 98.0268 108.009
101.389 102.795 113.887
101.997 99.6894 121.666
98.6804 96.7298 128.72
99.3563 100.343 136.835
98.1507 101.174 144.601
99.8447 109.302 64.4911
97.7693 111.165 57.9217
96.7029 106.829 72.5215
100.656 111.851 70.3396
103.183 106.873 77.2292
101.105 113.714 80.7647
98.1356 107.556 82.1059
95.4158 107.306 90.8791
102.078 109.435 87.3679
97.5268 114.068 94.634
102.015 106.77 95.2553
96.0457 108.274 99.1429
103.54 109.375 108.231
96.5233 109.207 113.314
97.6174 107.875 105.897
104.009 111.019 115.624
99.7804 106.993 120.526
103.962 112.758 123.346
100.361 104.913 127.511
100.039 113.524 130.972
100.621 107.489 140.92
101.245 106.7 134.102
100.908 123.054 55.3197
103.874 119.504 60.6264
96.3553 123.298 60.7226
104.784 114.876 74.5953
101.614 119.314 68.3739
96.7799 114.965 75.1342
97.7205 121.748 73.6513
103.808 119.271 84.4185
97.482 120.46 79.6037
104.059 114.738 91.6872
96.5592 114.855 86.5677
98.7065 121.043 90.6037
98.5548 115.129 102.772
102.497 120.596 97.7126
98.2098 122.156 105.777
100.227 116.11 111.483
100.055 118.556 118.557
95.4878 116.246 125.15
100.832 120.776 125.803
95.9751 121.762 130.789
104.116 121.267 132.514
99.6601 117.904 138.089
99.5654 122.845 143.892
100.611 117.683 150.675
101.76 124.512 48.8393
96.9947 130.702 64.2859
101.655 127.294 71.1973
96.0793 133.363 71.9648
100.231 128.509 79.346
102.688 127.105 86.5171
98.0721 128.311 93.4843
96.3539 131.513 86.6416
99.5681 128.089 100.965
96.4414 124.098 113.321
102.024 128.851 108.758
98.1052 132.867 121.772
103.739 132.568 116.717
100.716 126.359 120.307
99.9304 128.587 130.249
96.8479 132.734 126.588
101.212 129.292 138.482
95.6928 135.42 79.8322
104.105 134.998 84.6229
96.0856 136.564 92.531
103.968 140.985 91.5684
102.422 134.243 96.3836
100.454 135.858 103.952
98.593 141.866 98.4676
99.5627 142.668 110.188
98.7426 135.501 111.546
97.5689 139.41 118.13
101.241 137.349 128.989
103.461 146.862 103.367
109.25 72.6193 86.919
107.114 67.9053 97.0133
113.568 72.9305 96.7756
105.657 72.4612 102.669
104.891 75.2714 110.275
105.19 67.2944 107.808
112.252 72.6374 112.824
110.774 78.7568 72.2245
108.499 76.4061 79.7317
111.109 84.9379 78.445
109.312 79.3181 93.4341
110.323 84.055 87.1957
107.426 78.8187 104.021
114.205 79.5125 102.065
111.875 85.6091 98.5904
111.612 80.4694 109.849
112.02 79.0423 118.476
106.899 83.9969 125.624
107.595 83.7194 135.083
112.598 93.3729 65.9217
113.341 92.4733 74.4675
111.516 86.4774 70.2134
105.93 94.9707 72.0219
106.633 91.9218 78.6264
110.711 90.5913 84.7105
113.148 86.5098 91.9203
108.707 90.8502 92.0575
107.239 94.5438 104.189
105.428 89.8406 98.6115
112.179 93.2741 100.21
114.068 89.6557 106.267
107.157 86.2949 105.441
108.221 89.6194 111.872
108.903 86.308 118.528
106.797 92.7871 123.022
113.684 93.0055 117.53
110.819 95.0069 130.258
111.447 88.5453 131.329
114.306 89.4818 124.461
105.127 93.7969 136.846
113.452 100.521 62.5208
113.102 99.5705 71.3829
107.539 98.9925 68.5002
113.739 95.7837 81.1778
107.714 99.9157 78.6353
113.753 102.371 84.8388
108.668 97.4035 87.4762
112.693 95.5875 94.0192
106.479 99.1435 96.012
108.79 101.4 103.159
114.125 100.195 99.3989
110.586 96.1483 111.256
107.983 103.815 110.654
112.725 99.3327 106.201
108.09 98.6322 117.152
111.629 99.619 124.337
112.973 102.683 132.602
105.378 99.9421 130.878
112.742 97.0129 138.889
106.447 102.067 138.389
105.769 103.446 145.749
106.7 105.047 63.3114
105.972 111.792 59.2575
113.996 107.056 68.1812
107.43 111.321 68.139
109.844 105.562 74.3538
108.751 107.064 82.791
107.565 105.49 90.4643
114.118 108.893 90.112
105.084 112.137 100.026
109.614 105.802 97.5162
112.786 111.447 97.4545
112.249 107.446 104.763
109.324 111.964 110.007
107.123 105.377 119.476
111.061 114.018 118.215
114.069 108.096 121.193
112.828 107.682 114.409
107.913 106.272 126.541
107.923 108.278 133.717
112.188 107.618 140.151
105.514 113.358 138.428
107.482 117.575 52.8424
110.969 116.198 64.1875
109.755 123.736 61.5428
112.947 116.344 73.3724
108.577 119.838 70.779
109.213 114.379 80.0738
105.01 122.387 76.8843
110.602 122.159 82.0842
110.901 115.345 86.9589
107.688 121.778 90.1249
110.038 123.755 98.3188
111.993 116.316 102.97
109.432 117.098 95.6526
113.591 123.365 104.62
105.737 123.371 104.559
104.981 116.947 106.372
113.48 116.871 110.392
106.592 118.453 113.818
107.409 119.115 121.801
113.38 121.24 117.28
114.084 117.169 124.785
108.588 115.004 130.235
114.177 120.262 132.245
112.466 116.607 138.783
106.643 122.477 139.78
109.084 114.527 145.969
113.454 122.2 144.545
113.139 128.641 65.3766
108.314 125.672 69.2985
108.197 129.805 79.0555
110.475 129.048 86.9924
106.034 128.259 94.2845
107.532 130.559 102.191
110.904 124.568 110.793
104.999 126.113 113.415
110.854 132.151 112.613
111.049 129.025 119.714
106.655 124.453 118.293
106.223 133.066 124.635
113.71 125.866 126.9
107.531 129.204 132.603
106.604 125.438 126.036
112.223 128.742 138.368
113.639 130.032 145.191
109.556 135.412 92.2565
106.148 139.444 99.3535
113.229 135.717 99.1216
110.399 141.48 104.03
105.255 136.287 110.064
113.665 140.515 111.3
110.292 135.663 106.512
110.457 137.524 118.594
112.845 143.814 97.4221
112.306 148.522 104.762
107.123 143.456 109.401
106.265 151.597 109.643
115.688 72.4257 104.416
116.563 81.3205 83.9904
116.229 76.2472 89.818
117.546 83.1918 92.4445
120.425 78.45 96.7021
120.225 85.4406 101.132
122.641 81.9997 114.221
120.118 95.007 70.1676
117.835 88.7352 80.1073
121.833 95.0352 81.5409
116.39 94.9469 88.1357
119.702 88.0175 86.3871
120.147 90.5763 92.3379
116.848 90.165 96.1859
119.706 93.1431 102.274
115.452 86.3148 113.553
122.243 87.7632 108.986
118.212 94.5607 111.18
121.403 90.1221 117.561
122.554 91.165 126.389
117.441 90.9295 135.922
120.381 103.3 70.4199
116.923 101.29 77.6859
114.493 101.803 92.3577
120.969 101.062 87.0549
120.356 97.4208 94.9177
118.045 100.644 102.044
119.62 98.8291 105.464
116.261 102.55 110.312
123.314 99.3984 114.415
114.684 100.979 117.673
119.197 96.7383 121.174
118.882 103.274 125.183
119.041 97.0937 130.379
123.365 97.8733 124.944
119.69 104.376 136.096
116.477 110.665 61.3605
118.998 112.244 71.6588
114.552 109.328 77.015
123.454 105.237 80.1245
117.884 108.244 83.3908
120.618 106.717 93.0553
119.595 112.742 100.241
120.375 105.633 100.771
123.177 104.983 108.564
118.121 110.426 108.687
119.939 106.685 115.99
121.475 111.278 122.223
114.409 109.679 127.581
115.669 111.061 133.813
117.423 112.737 144.383
119.588 117.83 61.9686
121.601 119.644 72.5778
115.835 121.521 67.6959
117.127 116.132 79.7844
117.43 123.757 78.2476
116.373 115.651 92.762
119.957 114.645 86.5647
116.828 121.804 86.1366
122.177 123.792 91.3534
117.798 120.742 98.2031
118.832 122.155 111.889
119.371 117.541 105.539
119.629 115.485 116.205
119.262 122.125 122.176
120.716 116.081 128.292
120.374 115.84 136.403
116.095 131.311 75.683
118.019 129.802 85.5714
114.682 125.837 92.3092
120.063 131.953 92.9233
115.815 128.885 99.4028
121.161 125.239 104.599
117.185 129.24 109.954
119.079 130.072 117.691
121.066 123.891 130.36
122.549 129.367 124.764
116.557 131.175 132.152
119.124 123.945 138.753
118.709 136.982 81.4977
116.96 139.08 92.06
120.869 135.153 99.9412
118.836 142.917 103.21
123.414 135.706 113.002
117.783 135.591 106.719
115.247 134.003 124.451
124.407 84.795 94.1273
129.536 84.3017 86.0084
124.6 86.2807 89.2477
125.688 94.1567 89.2318
131.923 89.2836 92.7548
125.347 91.4548 97.5609
130.876 94.7546 101.46
125.465 94.5058 107.493
126.548 98.0511 73.7831
127.49 99.4692 80.2036
128.033 101.548 85.8025
127.333 102.159 92.7568
132.824 97.725 88.6991
125.091 99.5148 98.9975
126.511 100.477 104.021
130.541 100.719 110.12
127.838 95.5008 120.139
125.67 103.698 120.844
126.522 99.5595 128.071
125.039 108.91 73.3712
131.972 112.249 71.7118
125.005 113.567 80.5164
131.208 106.681 78.4026
133.121 113.936 83.2552
125.491 109.163 87.7
133.032 106.505 86.9182
131.774 114.021 91.6869
126.752 109.48 97.1349
129.094 106.9 103.366
125.795 112.9 105.12
132.421 110.726 109.143
126.331 109.711 114.445
129.788 110.596 122.314
124.466 107.63 128.034
125.59 109.776 134.936
124.551 109.126 142.76
125.95 120.562 84.8786
123.917 116.097 93.8323
129.755 122.406 94.7136
125.587 119.535 101.233
131.862 115.835 99.6785
132.607 118.777 107.398
125.72 117.199 111.741
124.206 123.577 117.062
132.62 115.05 115.8
126.013 117.608 121.046
128.217 123.531 133.012
129.11 115.76 129.446
127.859 117.071 137.966
124.025 116.78 144.227
125.122 117.841 150.343
124.053 127.33 98.194
129.72 126.255 104.443
124.591 127.86 111.246
125.038 132.673 105.612
131.051 124.944 112.659
128.581 132.056 117.523
129.862 125.692 122.191
124.222 140.524 95.758
128.705 133.555 98.6737
134.509 98.5561 80.526
138.434 101.916 90.062
133.853 101.62 101.572
137.924 95.4103 98.8942
137.591 104.067 108.502
140.415 108.749 84.9965
133.876 106.212 94.8429
140.486 110.499 93.2455
137.226 109.402 101.696
133.923 106.525 115.867
134.103 121.24 87.5345
139.608 117.65 102.574
133.833 118.624 122.732
137.351 121.294 114.69

POINT_DATA 752
SCALARS radius double
LOOKUP_TABLE default
5.00635
5.00635
4.34768
5.09976
5.00635
5.02687
4.24768
4.30635
4.40635
5.04768
4.50635
5.04768
5.09976
5.09976
5.00635
5.00635
5.00635
5.00635
5.09976
5.09976
5.04768
4.17354
5.02687
4.17354
5.02687
5.04768
5.04768
5.09976
4.40635
4.40635
5.00635
4.30635
5.09976
5.04768
5.00635
5.00635
5.03939
5.03939
5.04768
5.09976
5.09976
5.09976
5.09976
5.08931
5.04768
4.03939
4.18931
4.28931
4.13939
5.07271
5.08931
5.02621
4.13939
5.00635
5.00635
5.09976
4.73939
5.08931
4.13939
5.08931
5.08931
5.08931
5.08931
5.02621
5.07354
5.07271
4.82687
4.29976
5.04768
5.00635
5.07354
5.08931
5.02687
5.09976
5.00635
5.03939
4.82687
5.02621
5.04636
5.00635
5.00635
5.07354
5.00635
5.00635
5.00635
5.09976
5.03939
5.04768
5.00635
5.03939
5.07354
5.07354
5.08931
5.03939
5.08931
5.03939
5.08931
5.03939
5.08931
5.03939
5.09976
4.90635
4.97354
5.07354
5.08931
5.03939
5.03939
5.08931
5.03939
5.02621
4.80635
5.04768
5.02621
5.02621
5.02621
5.08931
5.07271
5.02621
5.02621
5.07271
5.03939
5.08931
5.08931
5.08931
5.08931
5.08931
5.07271
5.04768
4.73939
5.07271
4.38931
5.02621
5.03939
5.02621
4.03939
5.09976
4.13939
5.0053
4.62621
4.13939
4.52621
5.02687
5.02621
5.08931
5.00635
5.0053
5.03939
4.29976
5.00635
5.03939
5.09976
5.09976
4.34768
4.44768
5.09976
4.23939
5.09976
5.09976
5.03939
5.02621
5.03939
5.03939
5.08931
5.0053
5.02621
5.07271
5.07271
5.04768
5.03939
5.08931
5.03939
5.03939
5.03939
5.08931
5.03939
5.08654
5.09976
5.08654
5.04768
5.09976
5.08931
5.08931
5.09976
5.04768
5.09976
5.04768
5.04768
5.04768
5.09976
5.08931
5.02621
5.04768
5.07271
5.0053
5.04768
5.09976
5.03939
5.04768
5.08931
4.08931
5.03939
4.60635
4.70635
5.03939
5.04636
5.04768
5.04768
5.03939
5.03939
5.04636
5.0053
5.02621
5.02621
5.02621
5.03939
5.03939
5.03939
5.03939
5.02621
5.08931
5.04684
5.04684
5.02621
5.03939
5.02621
5.02621
4.38931
5.07271
5.03939
5.02621
5.08931
4.29976
5.02621
5.03939
5.02687
5.02621
5.07271
5.07271
5.08931
5.07271
5.09802
5.0053
5.08931
5.08931
5.08931
5.02621
5.09976
5.03939
5.07271
5.09976
5.03939
5.04768
5.03939
5.07354
5.02687
5.00635
5.08931
5.07271
5.08931
5.08931
5.03719
5.09802
5.02621
5.02621
5.02621
5.02621
5.08931
5.07271
5.07354
5.00635
5.08931
5.02687
5.04768
5.01647
5.02621
4.09976
5.03939
4.19976
5.08654
5.08654
5.04768
5.02687
5.0398
5.04768
5.02687
5.0398
5.04768
5.08931
5.09976
5.09976
5.09976
5.09976
5.06043
5.00635
5.03939
5.04768
4.18931
5.02272
5.09976
5.09976
5.09976
5.04768
5.03939
5.04768
5.04768
5.04768
5.04768
5.09976
5.09976
5.07354
5.07354
5.03939
5.04768
5.00635
5.09976
5.00635
5.09976
5.04768
5.00635
5.00635
5.00635
5.00635
5.00635
5.04768
5.04768
5.07271
5.00635
5.03939
5.0053
5.07271
5.07271
5.07271
5.04768
5.08931
5.08931
5.02621
5.09976
5.09809
5.07271
5.08931
5.00635
5.00635
5.09976
5.07271
5.0053
5.08931
5.02621
5.08931
5.03939
5.0053
5.08931
5.03939
5.08931
4.97271
5.02621
5.08931
4.39976
5.03939
5.00635
5.03939
5.09976
5.09976
5.02621
5.0053
4.9053
5.09976
4.40635
5.04768
4.40635
5.08931
5.03939
5.03939
5.03939
5.08931
5.09976
5.02621
5.00635
5.03939
5.03939
5.09976
5.09976
5.02621
5.08931
5.03939
5.09976
4.9053
5.0053
5.09976
5.02687
5.07271
5.02621
5.03939
5.04768
5.0398
5.09976
5.03939
5.00635
5.03939
5.00635
4.69976
4.79976
4.69976
5.08931
5.02621
5.08931
5.09802
5.03939
4.59802
5.09976
4.69802
5.08931
5.07271
5.00635
5.0398
5.00635
5.07354
5.04768
5.04768
5.00635
5.04768
5.04768
5.07354
5.01647
5.0398
5.0398
4.69976
5.08931
5.09802
5.08931
5.07354
5.07354
5.04768
5.00635
5.09976
5.09976
5.04768
4.34768
5.09976
5.04768
5.09976
4.34768
5.07354
5.07354
5.08931
5.09976
5.03939
5.00635
5.07354
5.08931
5.03939
5.07354
5.03939
5.04768
5.09976
5.03939
5.03939
4.87354
4.94768
5.03939
5.04768
5.04768
5.09976
5.04768
5.04636
5.04768
5.09976
4.94768
5.04768
5.09976
5.04768
5.08931
5.07271
5.02621
5.0053
5.07271
5.07271
4.3053
5.09809
5.09976
4.37271
5.09976
5.03939
5.09976
4.89976
5.09976
5.09976
5.09976
5.09976
5.08931
5.09976
5.09976
5.02621
5.09976
5.02621
5.07271
5.02621
4.3053
5.04636
5.0053
5.07271
5.03939
4.89976
5.08931
4.50635
5.09976
5.03939
5.04768
4.50635
5.03939
5.03939
5.07354
5.07354
5.08931
5.00635
5.00635
5.02621
5.09976
5.04636
5.02621
5.00635
5.09976
5.09809
5.07271
5.07271
5.08931
5.03939
5.08931
5.03939
5.03939
5.03939
5.04768
5.03939
5.09976
5.09976
5.00635
5.00635
5.09976
5.02621
4.64768
5.04768
4.74768
5.09976
5.04768
5.03939
5.08931
5.02621
5.09976
5.03939
5.09976
5.08931
5.00635
5.07354
5.03939
5.08931
5.04768
5.03939
5.03939
5.03939
5.07354
5.00635
5.07354
5.00635
5.02687
4.74768
4.74768
5.09976
5.08931
5.03939
5.08931
5.08931
4.58931
5.02621
5.04768
4.58931
5.04768
5.00635
5.08931
5.08931
4.82687
4.92687
5.09976
5.04768
5.09976
4.60635
4.59976
5.08931
4.59976
5.03939
5.09976
5.09976
4.70635
5.09976
4.87354
5.04636
5.00635
4.47271
5.09976
5.09976
5.09976
5.02621
5.0053
5.07271
5.03939
5.0053
4.57271
4.57271
5.02621
5.02621
5.09976
5.02621
5.09976
5.07271
5.08931
5.0053
5.07271
5.03939
5.07271
5.04636
4.14768
4.14768
5.02621
5.03939
5.03939
5.03939
5.09976
5.09976
4.09976
5.09976
5.00635
5.03939
5.00635
5.04768
5.07271
5.03939
5.08931
5.03939
5.00635
5.08931
5.09976
5.09976
5.04768
5.00635
5.07354
4.97354
5.04768
4.97354
5.09976
5.04768
5.03939
5.03939
5.08931
5.03939
5.03939
5.09976
5.03939
5.03939
5.03939
5.04768
5.07354
5.09976
5.04768
5.04768
5.00635
5.04768
5.09976
5.09976
5.07271
5.07354
5.04768
5.00635
5.00635
5.09976
5.07354
5.03939
5.09976
5.08931
5.03939
5.02621
4.24768
5.0053
4.14768
5.04636
5.0053
5.03728
4.9053
5.03939
5.08931
4.82621
4.82621
5.04636
4.49976
4.58931
4.68931
5.07354
5.03939
5.00635
4.19976
5.03939
5.07271
5.02621
5.07271
5.08931
5.08931
5.03939
5.03939
5.08931
5.02687
5.03939
5.04768
5.00635
5.09976
5.08931
5.07354
5.07354
5.08931
5.03939
5.03939
5.03939
5.03939
5.03939
5.03939
5.09976
5.08931
5.04768
5.04768
5.04768
5.07354
4.32687
4.42687
5.09976
5.08931
5.09976
5.08931
5.04768
5.08931
5.09976
5.07354
5.03939
5.08931
4.59976
5.02687
4.9053
5.04768
5.08931
5.00635
5.08931
5.00635
5.08931
5.03939
5.04768
5.04768
5.04768

SCALARS status double
LOOKUP_TABLE default
1
1
1
1
1
1
1
1
1
1
1
1
1
1
1
1
1
1
1
1
1
1
1
1
1
1
1
1
1
1
1
1
1
1
1
1
1
1
1
1
1
1
1
1
1
1
1
1
1
1
1
1
1
1
1
1
1
1
1
1
1
1
1
1
1
1
1
1
1
1
1
1
1
1
1
1
1
1
1
1
1
1
1
1
1
1
1
1
1
1
1
1
1
1
1
1
1
1
1
1
1
1
1
1
1
1
1
1
1
1
1
1
1
1
1
1
1
1
1
1
1
1
1
1
1
1
1
1
1
2
1
1
1
1
1
1
1
1
1
1
1
1
1
1
1
1
1
1
1
1
1
1
1
1
1
1
1
1
1
1
1
1
1
1
1
1
1
1
1
1
1
1
1
1
1
1
1
1
1
1
1
1
1
1
1
1
1
1
1
1
1
1
1
1
1
1
1
1
1
1
1
1
1
1
1
1
1
1
1
1
1
1
1
1
1
1
1
1
1
1
1
1
1
1
1
1
1
2
1
2
1
1
2
1
1
1
1
1
1
1
1
1
1
1
1
1
1
1
2
1
1
1
1
1
1
1
1
1
1
1
1
1
1
1
1
1
1
1
1
1
1
1
1
1
1
1
1
1
1
1
1
1
1
1
1
1
1
1
1
1
1
1
1
1
1
1
1
1
1
1
1
1
1
1
1
1
1
1
1
1
1
1
1
1
1
1
1
1
1
1
1
1
1
1
1
1
1
1
1
1
1
1
1
1
1
1
1
1
1
1
1
1
1
1
1
1
1
1
1
1
1
1
1
1
1
1
1
1
1
1
1
1
1
1
1
1
1
1
1
1
1
1
1
1
1
1
1
1
1
1
1
1
1
1
1
1
1
1
1
1
1
1
1
1
1
1
1
1
1
1
1
1
1
1
1
1
1
1
1
1
1
1
1
1
1
1
1
1
1
1
1
1
1
1
1
1
1
1
1
1
1
1
1
1
1
1
1
1
1
1
1
1
1
1
1
1
1
1
1
1
1
1
1
1
1
1
1
1
1
1
1
1
1
1
1
1
1
1
1
1
1
1
1
1
1
1
1
1
1
2
1
1
1
1
1
1
1
1
1
1
1
1
1
1
1
1
1
1
1
1
1
1
1
1
1
1
1
1
1
1
1
1
1
1
1
1
1
1
1
1
1
1
1
1
2
1
1
1
1
1
1
1
1
1
1
1
1
1
1
1
1
1
1
1
1
1
1
1
1
1
1
1
1
1
1
1
1
1
1
1
1
1
1
1
1
1
1
1
1
1
1
1
1
1
1
1
1
1
1
1
1
1
1
1
1
1
1
1
1
1
1
1
1
1
1
2
1
1
1
1
2
1
1
2
2
2
1
1
1
1
1
1
1
1
1
1
1
1
1
1
1
1
1
1
1
1
1
1
1
1
1
1
1
1
1
1
1
1
1
1
1
1
1
1
1
1
1
1
1
1
1
1
1
1
1
1
1
1
1
1
1
1
1
1
1
1
1
1
1
1
1
1
1
1
1
1
1
1
1
1
1
1
1
1
1
1
1
1
1
1
1
1
1
1
1
1
1
1
1
1
1
1
1
1
1
1
1
1
1
1
1
1
1
1
1
1
1
1
1
1
1
1
1
1
1
1
1
1
1
1
1
1
1
1
1
1
1
1
1
1
1
1
1
1
1
1
1
1
1
1
1
1

SCALARS concentration double
LOOKUP_TABLE default
32.9087
33.4291
34.1697
32.8446
33.6073
32.9087
34.1697
33.6073
32.612
33.1036
32.612
32.612
33.3082
33.763
33.1036
33.9291
33.1036
33.9291
32.612
33.4226
34.0179
33.4291
32.9087
33.4291
32.9087
34.6675
34.6679
33.7484
34.0179
34.0179
33.6073
33.6073
34.2388
33.7799
35.2434
34.4642
34.9717
34.9717
35.1284
34.1697
34.9691
34.6969
34.9691
36.3462
35.614
34.6178
33.6242
33.6242
33.4007
33.5425
35.283
34.4307
34.6178
35.1523
35.1523
33.4226
34.2988
34.2988
33.4007
33.4007
34.4396
33.2933
33.2933
33.7775
35.1523
34.0619
35.1523
35.5935
35.1523
35.2716
34.5934
34.4396
32.9087
34.9349
34.4642
38.8967
35.1523
35.8849
36.1604
34.9775
34.9775
34.5934
35.5668
35.5668
35.2716
34.5579
36.5478
35.6107
35.2434
35.1659
36.2372
36.2372
35.9913
36.087
36.4676
36.087
36.4676
38.0067
37.2323
37.2323
36.4633
37.4014
36.2372
36.2372
35.9913
36.5419
38.0067
38.0067
37.2323
37.2323
37.4014
37.8086
32.6677
32.6677
34.6133
33.8212
33.5425
33.7131
33.7131
34.4168
34.6133
35.283
34.6133
36.2442
34.6178
33.8212
35.3925
35.1523
34.2988
35.1583
35.5986
36.1152
34.4775
34.6823
34.8039
34.9349
34.8039
34.0945
34.7987
35.3843
34.7987
36.0156
36.2442
38.3723
35.1523
36.9163
37.4365
35.5935
34.5934
37.4365
37.2596
36.0164
36.3177
36.3177
36.3177
35.3843
35.0262
36.6013
38.8967
37.5341
38.3723
38.3723
36.5934
36.6396
37.0272
38.5959
36.6034
37.6953
36.5478
36.9426
38.293
36.5744
36.2315
37.825
39.5195
38.1566
37.6362
38.2776
39.0753
37.6362
37.7837
38.2405
40.4975
38.6285
37.7576
37.6042
37.7576
37.7576
40.064
38.7636
39.3271
39.5876
38.3639
39.0765
38.3741
40.3598
39.463
37.6042
40.7995
40.8431
40.8188
41.4825
41.4825
35.4429
34.9807
33.3008
33.3008
34.6133
35.4429
34.9807
35.2979
35.4338
34.599
34.599
34.7732
33.8597
35.5206
34.8215
36.7575
37.5345
35.9579
35.9579
36.1152
37.1317
37.0313
37.6926
35.5986
35.8167
34.4775
35.8043
35.9351
37.4496
35.8043
35.9302
36.0156
38.1787
38.2274
37.7228
36.2442
37.7228
38.7324
37.7354
37.4365
37.0313
37.0313
35.9879
37.4623
39.299
36.8449
38.7963
38.3058
37.6953
38.3058
37.0377
39.2406
36.8798
38.8967
38.2274
38.296
38.296
40.2683
38.7324
38.8131
38.9141
38.7014
38.8131
39.3836
38.3769
39.2406
40.2498
37.9846
39.2406
40.2498
42.9066
40.7102
40.7995
40.146
40.7995
40.7879
40.7879
39.7146
40.7547
41.3101
39.913
41.3101
41.3101
40.4526
39.3836
40.4884
40.3126
40.4884
40.3126
42.9066
40.2498
40.7995
42.388
40.8431
41.9934
40.064
41.0277
41.7236
41.7451
42.2485
40.0398
41.4825
41.7451
40.0398
42.5817
41.7492
41.9392
43.2149
41.8676
43.0479
43.8495
40.3598
42.7765
41.7492
43.0479
33.3165
34.6565
36.1431
33.9599
36.1431
35.3363
34.4676
35.4338
33.9491
35.4756
35.8026
37.1802
37.1802
35.9579
36.6598
36.6232
36.6232
35.4338
37.0249
36.8827
35.376
36.9129
34.7969
34.7969
34.7904
36.5977
37.1802
37.5345
37.5345
38.5531
38.2
36.2814
37.6926
36.6662
37.6926
36.5977
38.4966
37.1987
37.4496
38.7293
36.8798
38.7293
40.3874
40.3874
38.5629
41.3081
39.5722
39.2384
39.2384
39.2384
39.2384
39.0458
38.2
39.299
41.747
39.6444
40.5431
38.9808
38.3341
38.7939
38.586
41.7328
41.7328
39.8285
42.7663
41.785
41.785
39.5722
39.5569
41.785
40.304
41.1825
38.9141
41.747
40.4526
41.3101
41.0457
40.1736
42.6491
40.1736
41.732
41.1049
41.1049
43.7593
44.0138
42.8052
42.7663
43.283
40.146
41.9193
43.1785
41.9193
42.0834
40.2483
42.9642
41.3101
43.6546
42.5268
42.1787
42.1787
40.9379
44.5532
42.6419
44.216
42.9066
42.9066
42.9066
43.7593
42.8052
43.283
42.8052
44.829
44.829
44.5983
43.4442
43.7681
42.5817
44.4628
42.9592
45.4984
44.5532
42.9592
42.9592
44.965
43.2149
46.2564
44.6944
47.9628
45.2936
44.3314
45.3713
46.3309
44.3314
46.485
46.0199
46.3309
35.9034
35.3751
37.6385
35.7926
35.4756
34.2978
37.2074
36.6524
36.1431
38.1972
36.6598
38.5531
35.7926
37.6385
38.4054
37.2074
37.4511
37.3734
38.9402
40.2111
40.2111
40.2111
39.6165
38.4181
38.5531
38.9593
38.5531
40.0684
38.5531
40.2893
38.4054
38.4054
38.4054
38.6238
38.7293
38.6238
39.5658
38.9402
39.5658
38.9946
41.3116
42.2169
39.6165
40.4175
40.4175
42.6486
41.1545
40.2893
40.2893
40.5431
42.7144
40.0684
40.5431
40.5431
40.6155
40.9194
41.4476
41.4476
38.9946
40.5187
40.5187
41.3912
42.3643
44.355
44.1035
43.1233
43.1233
41.2847
45.1886
41.1825
41.501
43.7353
42.8861
42.9376
42.6467
44.0846
44.0846
42.9376
41.7362
41.7362
43.1949
42.9435
42.3643
44.1035
45.9417
46.1478
45.9417
43.8449
44.9141
46.6379
44.6221
45.6609
46.6873
45.0458
46.6873
47.0942
42.5268
42.5268
45.8003
44.0036
44.5532
45.8003
46.4007
44.3155
47.9434