# vtk DataFile Version 2.0
Unstructured grid legacy vtk file with point scalar data
ASCII

DATASET UNSTRUCTURED_GRID
POINTS 268 double
65.1278 98.3987 103.582
65.0277 109.029 94.2726
64.1738 113.727 99.9685
64.3102 106.82 104.804
64.9718 117.068 92.5497
66.2369 116.722 105.192
74.5175 98.9613 90.2506
70.2214 103.315 94.8626
71.8517 97.4248 99.6354
68.2498 103.798 99.1952
71.8328 102.771 106.85
75.1756 104.547 114.424
75.6926 99.5775 121.551
73.6574 107.786 93.1511
71.9158 113.637 87.5981
71.273 110.113 101.307
67.9579 107.987 112.391
71.9883 113.209 108.121
75.3348 112.896 115.233
69.1589 107.317 120.236
75.3157 114.839 79.327
72.384 115.507 95.8233
84.5531 83.1933 106.541
85.704 92.3212 82.8662
81.3866 89.0438 93.741
81.6109 89.8149 101.956
82.8976 91.7476 110.352
76.5695 95.236 105.749
78.3318 92.4191 117.332
82.0195 91.3444 125.123
82.7677 96.0872 89.6627
80.5257 103.521 93.4631
78.5084 95.9055 96.5668
83.005 98.705 101.705
76.8802 104.282 100.308
79.6355 103.449 107.736
83.8468 102.51 114.5
84.393 97.3929 120.842
80.8035 99.2358 128.376
82.5949 111.169 80.7919
79.7682 109.975 88.4381
80.1617 111.814 96.9445
85.0761 106.674 101.272
82.8231 110.561 112.067
78.4801 110.832 105.104
83.3624 106.88 121.108
82.1453 119.229 83.1534
78.5824 117.87 91.1408
84.4622 114.39 103.683
83.9634 119.729 96.8994
84.8801 118.613 109.774
78.5962 120.528 114.523
81.3013 114.796 120.268
83.8376 124.792 103.76
94.1672 84.6873 93.4738
91.5753 85.4297 102.019
94.746 93.2716 82.4395
88.4765 90.4102 96.3271
88.9374 92.949 104.302
89.8258 87.6643 109.92
94.7657 88.1568 116.378
86.5994 89.3664 118.319
92.3899 93.8004 122.235
89.3194 98.8862 78.4124
90.1789 98.1003 87.1541
93.2156 104.403 90.24
93.6854 96.3718 94.5793
87.2725 100.835 94.7734
91.1677 100.442 101.056
86.358 99.3621 108.094
89.7509 95.3671 114.102
93.4577 99.0918 107.504
90.9272 102.04 119.288
87.1573 103.945 126.868
93.5019 99.7539 127.174
91.2304 104.77 134.244
89.4631 108.37 66.338
91.6917 113.811 71.4554
94.5704 104.966 81.6505
88.5183 105.649 82.1864
94.6063 110.713 84.365
89.5505 111.085 77.4447
87.1735 113.608 87.3734
94.2076 112.594 91.9029
86.9992 108.447 92.9783
93.2913 107.346 98.2004
89.2206 113.73 98.4135
94.6694 112.895 104.482
89.8596 106.852 108.842
91.8843 109.138 122.855
95.2483 109.214 115.361
88.8598 120.848 73.7367
90.4498 117.427 80.84
87.7459 121.465 89.3449
95.1426 118.127 86.9421
93.1846 120.284 95.8341
91.0353 119.887 104.6
90.2293 123.13 113.127
88.591 115.005 116.148
94.896 115.889 120.89
94.7341 123.353 118.948
89.2692 125.194 81.3507
93.7279 127.454 91.1842
89.84 128.145 97.8061
90.7368 128.225 106.121
94.8914 134.406 98.3021
98.6437 82.8416 86.3419
99.4898 84.5528 101.364
103.441 79.8083 96.6378
102.144 78.2183 105.202
99.8211 77.7425 114.03
97.3265 84.6871 109.14
104.273 82.1625 110.549
102.099 92.1245 78.1964
98.5658 90.601 89.93
97.2604 90.628 98.2149
103.105 90.5026 105.224
102.69 89.1133 113.729
96.6265 92.8859 109.492
99.0811 88.508 122.823
104.228 95.0284 123.303
102.312 100.793 76.4538
96.1302 100.588 83.0859
104.362 98.7514 83.887
98.5512 98.5961 89.2984
98.482 96.8598 102.606
98.8548 101.988 96.6549
95.4551 101.988 113.302
102.613 103.965 112.672
103.276 96.5421 110.532
98.338 95.7592 117.376
98.987 103.8 121.187
99.1041 102.502 130.87
98.0825 111.182 68.4632
95.8222 106.312 75.4052
103.862 108.513 75.9951
101.525 106.553 82.7054
97.6768 113.709 77.5804
100.691 106.959 90.761
102.211 113.321 90.2145
102.583 108.76 99.6638
97.4515 113.369 97.2002
97.4726 104.877 105.107
101.446 111.048 107.138
101.984 110.424 113.745
102.089 113.696 123.863
102.148 109.942 132.042
104.22 114.647 62.7729
97.0729 119.701 72.2291
102.31 115.06 83.6436
103.727 121.803 84.1397
100.691 119.17 92.4413
101.204 116.966 99.47
99.8953 119.559 106.008
95.8897 116.805 112.04
101.674 118.145 118.614
98.8171 115.86 127.563
103.028 122.999 125.13
98.2009 119.171 133.252
100.952 120.888 137.063
97.6903 125.242 79.3003
103.556 125.867 90.6419
97.594 125.041 86.244
96.8687 124.91 101.819
99.4589 128.932 95.9093
103.381 130.214 106.753
96.8474 126.973 110.65
102.47 132.367 114.032
100.79 124.935 116.238
104.493 125.465 132.94
99.9315 134.227 103.109
108.898 74.2575 97.2031
106.732 80.3098 84.4629
108.783 83.9849 105.103
109.237 83.7178 113.33
108.64 90.7541 84.7375
105.614 85.9154 90.5966
112.315 92.2796 93.5249
105.291 94.7061 98.6104
106.983 86.9459 98.018
110.226 90.6755 110.212
106.748 87.0693 120.566
110.322 94.0012 117.66
110.256 94.1559 129.334
109.399 104.213 70.0826
109.849 95.9485 78.2589
109.954 104.167 78.7759
105.384 95.2988 91.0252
112.529 98.0737 86.9909
107.116 102.763 94.8689
104.826 101.219 103.417
112.42 96.1235 102.397
111.232 98.9356 110.917
107.316 101.981 119.164
106.184 101.538 127.651
105.544 102.572 136.393
105.471 110.797 69.4148
108.798 111.509 82.2932
108.536 105.031 87.2826
108.245 112.258 89.5274
114.156 108.594 91.404
108.479 112.184 96.6169
111.514 107.933 98.8512
114.257 112.318 104.721
110.613 106.886 113.556
108.768 107.36 105.873
105.804 110.926 118.359
112.969 108.312 121.55
105.518 108.404 125.205
110.257 107.687 131.92
113.34 113.784 128.033
106.481 110.667 139.026
107.207 116.502 75.8895
110.947 118.838 85.5044
108.671 118.539 93.7134
105.301 123.56 99.5751
106.91 115.513 103.529
113.243 119.47 100.263
104.971 116.643 111.802
112.336 119.505 108.882
112.002 114.499 115.308
108.946 122.604 116.525
108.716 116.862 122.784
105.192 117.029 131.067
113.902 121.965 126.912
111.404 118.73 134.2
108.287 127.723 83.1118
111.348 125.475 90.5055
107.112 131.571 94.6006
108.231 133.265 101.94
104.844 124.401 109.681
111.56 126.373 104.935
114.869 84.9762 97.4925
119.98 95.2759 90.1281
118.944 92.7244 98.2921
116.229 88.5106 105.031
118.03 94.3516 113.844
116.291 94.1355 123.963
119.383 97.8427 81.8676
115.088 99.8941 94.9085
122.428 99.9918 100.222
115.681 104.01 101.84
119.284 99.5421 106.994
116.487 102.59 109.467
115.054 101.2 118.666
114.557 101.792 127.173
116.535 108.53 71.2244
115.457 111.878 78.2783
116.29 105.529 84.0491
121.267 105.482 77.5688
120.998 111.235 87.3962
121.193 105.506 94.3539
119.154 113.204 98.7817
116.876 109.27 97.3615
121.778 107.748 105.322
119.532 106.187 113.542
119.028 113.778 110.757
119.982 112.799 118.755
119.895 108.451 126.331
118.831 112.792 133.692
117.283 112.945 141.678
116.703 116.691 91.3969
120.16 119.125 104.63
115.788 119.844 119.503
123.515 121.457 117.918
123.64 116.325 124.986
118.421 124.187 94.9269
126.823 115.269 113.197

POINT_DATA 268
SCALARS radius double
LOOKUP_TABLE default
5.03939
5.03939
4.23939
5.03939
5.08931
4.33939
5.07271
4.09976
5.03939
4.09976
5.03939
5.03939
5.03939
5.03939
5.08931
5.03939
5.09976
4.88931
5.03939
5.09976
5.07271
5.03939
5.0053
5.07271
5.02621
5.0053
5.02621
5.0053
5.02621
5.0053
5.07271
5.08931
5.02621
5.02621
5.09976
5.09976
5.08931
5.07271
5.07271
5.08931
5.04636
5.02621
5.07271
5.08931
4.98931
5.08931
5.02621
5.03939
5.0053
5.0053
5.09976
5.09976
5.08931
5.0053
5.09809
5.07271
5.04636
5.0053
5.0053
5.08931
5.08931
5.07271
5.03939
5.07271
5.0053
5.0053
5.03939
5.07271
5.09976
5.02621
5.0053
5.09976
5.08931
5.09976
5.09976
5.08931
5.07271
4.97271
4.1053
5.04636
5.08654
4.97271
5.02272
5.07271
5.07271
5.07271
5.0053
5.03939
5.09976
5.07271
5.02621
5.02621
5.08931
5.03939
5.06831
5.03939
5.03939
5.03939
5.08931
5.03939
4.53939
5.02621
5.03939
5.03939
5.09976
5.09976
5.08931
5.0053
5.03939
5.03939
5.03939
5.07271
4.38931
5.04636
5.02621
5.0053
5.09809
5.02621
5.03939
5.0053
5.02621
5.04636
4.2053
5.09809
5.03939
5.0053
5.08931
5.09976
5.03939
5.07271
5.03939
5.08931
5.08931
5.02621
5.0053
5.07271
5.09809
5.08654
5.0053
4.38931
5.0053
4.50635
5.02621
5.08931
4.73939
4.19976
5.03939
5.02621
5.07271
5.09976
5.09976
5.04768
4.60635
5.03939
5.08931
5.08931
4.29976
5.04768
3.97354
4.07354
4.84768
5.02621
4.84768
5.03939
5.09976
4.72621
5.09976
5.03939
4.53939
5.00635
4.62621
5.03939
5.08931
5.03939
4.48931
5.09809
5.09976
5.09809
5.07271
5.09976
5.02621
5.07271
5.08931
5.07271
5.07271
5.04636
5.02621
5.02621
5.09809
5.09809
5.08931
5.07271
5.08931
5.03939
5.07271
5.04768
5.07271
5.08931
5.02621
4.48931
5.0053
4.52621
4.52621
5.02621
5.09976
5.02621
4.83939
5.08931
5.03939
5.04768
5.04768
5.04768
5.03939
5.03939
5.02621
5.08931
5.03939
5.08931
5.08931
5.08931
5.02621
5.0053
5.08931
4.60635
5.09976
4.70635
5.09976
5.08931
5.08931
5.08931
5.07271
5.07271
5.03939
5.09809
5.03728
5.03939
5.08931
5.07271
5.07271
5.04636
5.04636
5.07271
4.03939
4.13939
5.03939
5.08931
5.04636
5.08931
5.07271
5.04636
5.0053
5.04636
4.12621
4.12621
5.04768
5.04768
5.02621
5.03939
5.08931
5.00635
5.00635
5.02621
5.07271
5.09976
5.03939
5.03939
5.08931
5.02621

SCALARS status double
LOOKUP_TABLE default
1
1
1
1
1
1
1
1
1
1
1
1
1
1
1
1
1
1
1
1
1
1
1
1
1
1
1
1
1
1
1
1
1
1
1
1
1
1
1
1
1
1
1
1
1
1
1
1
1
1
1
1
1
1
1
1
1
1
2
1
1
1
1
1
1
1
1
1
1
1
2
1
1
1
1
1
1
1
1
1
1
1
1
1
1
1
1
1
1
1
1
1
1
1
1
1
1
1
1
1
1
1
1
1
1
1
1
1
1
1
1
1
1
1
1
1
1
1
1
1
1
1
1
1
1
1
1
1
1
1
1
1
1
1
1
1
1
1
1
1
1
1
1
1
1
1
1
1
1
1
1
1
1
1
1
1
1
1
1
1
1
1
1
1
1
1
1
1
1
1
1
1
1
1
1
1
1
1
1
1
1
1
1
1
1
1
1
1
1
1
1
1
1
1
1
1
1
1
1
1
1
1
1
1
1
1
1
1
1
1
1
1
1
1
1
1
1
1
1
1
1
1
1
1
1
1
1
1
1
1
1
1
1
1
1
1
1
1
1
1
1
1
1
1
1
1
1
1
1
1
1
1
1
1
1
1
1
1
1
1
1
1
1
1
1
1
1
1

SCALARS concentration double
LOOKUP_TABLE default
33.6655
35.1842
34.4128
34.7652
34.86
34.4128
35.0223
35.0611
36.4153
35.0611
35.4016
35.3189
35.3189
35.1842
35.1842
35.0611
34.7652
36.9403
36.4044
34.7652
38.3969
36.6135
35.1196
36.5237
36.1108
35.6299
35.0071
35.6299
35.0071
34.7393
36.1108
36.4153
36.1108
37.2165
36.4153
36.4153
37.6381
35.8637
35.8637
38.3969
37.9921
36.9403
38.09
38.0035
36.9403
37.4803
38.3969
36.6135
39.5437
38.2926
38.2658
38.2658
38.0035
39.0578
35.5803
36.5692
37.9313
36.3559
36.6892
38.1319
38.1319
35.9857
37.5292
36.5237
36.5237
38.9275
38.5913
37.5849
38.2641
37.2165
36.6892
37.8005
37.8005
37.5292
37.5292
37.9769
39.3081
38.7479
38.4807
38.7088
41.2466
38.7479
41.2466
38.9275
38.09
38.9275
38.2926
40.3223
38.2641
39.2266
39.2791
40.7712
38.3969
40.0877
41.2466
40.4274
40.0073
40.0073
40.0073
41.0738
42.5431
40.7712
42.2639
42.2639
42.9547
43.6386
36.8527
37.319
36.3726
36.3726
36.3726
36.5692
36.7162
37.9313
37.319
37.4989
38.1804
38.1319
38.2641
37.5493
40.1002
39.1766
38.4807
40.4254
38.5913
37.4989
38.5913
37.8005
37.8005
40.2067
38.8638
38.9067
38.9213
41.7097
39.4678
41.4161
40.8589
41.2466
40.834
43.255
40.834
41.2466
39.2791
41.5773
40.1952
41.0738
41.4952
41.7097
40.7712
42.8912
42.8912
41.2466
41.2466
43.3481
41.2339
42.7336
41.0738
43.1466
43.1466
43.1466
43.53
44.128
43.53
41.7013
43.6386
45.6046
42.9547
42.9547
42.5431
43.1466
45.6046
36.3726
36.8527
37.9308
36.7162
38.7939
37.889
39.3469
37.319
37.889
39.348
38.1336
40.1002
39.973
42.1442
39.391
41.4361
37.319
40.9289
41.6302
39.6258
39.9137
40.1002
40.3782
39.973
42.393
41.4161
43.5179
41.4361
43.255
43.2416
43.5434
43.5434
43.3296
42.5379
43.3296
40.1952
42.2831
41.4952
42.393
44.3397
43.1466
44.2816
46.1285
44.128
43.3481
43.3481
44.8147
42.7336
44.8147
44.8147
45.7648
43.6875
43.1466
46.3666
43.1466
46.2952
46.3949
46.3146
46.3146
44.0719
46.6918
37.889
40.9289
41.0433
37.9308
41.2407
40.1002
43.2328
41.6302
43.081
43.3296
41.7636
41.7636
42.0702
42.2831
44.655
43.5179
43.2328
44.655
43.2416
41.6302
46.4606
46.4606
44.0709
44.0709
46.8938
45.4864
45.3167
44.3397
44.3397
46.3949
46.8938
46.3666
48.8627
48.8627
46.3949
46.8938

SCALARS fibres double
LOOKUP_TABLE default
0
0
0
0
0
0
0
0
0
0
0
0
0
0
0
0
0
0
0
0
0
0
0
0
0
0
0
0
0
0
0
0
0
0
0
0
0
0
0
0
0
0
0
0
0
0
0
0
0
0
0
0
0
0
0
0
0
0
0
0
0
0
0
0
0
0
0
0
0
0
0
0
0
0
0
0
0
0
0
0
0
0
0
0
0
0
0
0
0
0
0
0
0
0
0
0
0
0
0
0
0
0
0
0
0
0
0
0
0
0
0
0
0
0
0
0
0
0
0
0
0
0
0
0
0
0
0
0
0
0
0
0
0
0
0
0
0
0
0
0
0
0
0
0
0
0
0
0
0
0
0
0
0
0
0
0
0
0
0
0
0
0
0
0
0
0
0
0
0
0
0
0
0
0
0
0
0
0
0
0
0
0
0
0
0
0
0
0
0
0
0
0
0
0
0
0
0
0
0
0
0
0
0
0
0
0
0
0
0
0
0
0
0
0
0
0
0
0
0
0
0
0
0
0
0
0
0
0
0
0
0
0
0
0
0
0
0
0
0
0
0
0
0
0
0
0
0
0
0
0
0
0
0
0
0
0
0
0
0
0
0
0
0
0
0
0
0
0

SCALARS phenot double
LOOKUP_TABLE default
7
7
7
7
7
7
7
7
7
7
7
7
7
7
7
7
7
7
7
7
7
7
7
7
7
7
7
7
7
7
7
7
7
7
7
7
7
7
7
7
7
7
7
7
7
7
7
7
7
7
7
7
7
7
7
7
7
7
7
7
7
7
7
7
7
7
7
7
7
7
7
7
7
7
7
7
7
7
7
7
7
7
7
7
7
7
7
7
7
7
7
7
7
7
7
7
7
7
7
7
7
7
7
7
7
7
7
7
7
7
7
7
7
7
7
7
7
7
7
7
7
7
7
7
7
7
7
7
7
7
7
7
7
7
7
7
7
7
7
7
7
7
7
7
7
7
7
7
7
7
7
7
7
7
7
7
7
7
7
7
7
7
7
7
7
7
7
7
7
7
7
7
7
7
7
7
7
7
7
7
7
7
7
7
7
7
7
7
7
7
7
7
7
7
7
7
7
7
7
7
7
7
7
7
7
7
7
7
7
7
7
7
7
7
7
7
7
7
7
7
7
7
7
7
7
7
7
7
7
7
7
7
7
7
7
7
7
7
7
7
7
7
7
7
7
7
7
7
7
7
7
7
7
7
7
7
7
7
7
7
7
7
7
7
7
7
7
7

SCALARS cont_pheno double
LOOKUP_TABLE default
0.5
0.5
0.5
0.5
0.5
0.5
0.5
0.5
0.5
0.5
0.5
0.5
0.5
0.5
0.5
0.5
0.5
0.5
0.5
0.5
0.5
0.5
0.5
0.5
0.5
0.5
0.5
0.5
0.5
0.5
0.5
0.5
0.5
0.5
0.5
0.5
0.5
0.5
0.5
0.5
0.5
0.5
0.5
0.5
0.5
0.5
0.5
0.5
0.5
0.5
0.5
0.5
0.5
0.5
0.5
0.5
0.5
0.5
0.45
0.5
0.5
0.5
0.5
0.5
0.5
0.5
0.5
0.5
0.5
0.5
0.45
0.5
0.5
0.5
0.5
0.5
0.5
0.5
0.5
0.5
0.5
0.5
0.5
0.5
0.5
0.5
0.5
0.5
0.5
0.5
0.5
0.5
0.5
0.5
0.5
0.5
0.5
0.5
0.5
0.5
0.5
0.5
0.5
0.5
0.5
0.5
0.5
0.5
0.5
0.5
0.5
0.5
0.5
0.5
0.5
0.5
0.5
0.5
0.5
0.5
0.5
0.5
0.5
0.5
0.5
0.5
0.5
0.5
0.5
0.5
0.5
0.5
0.5
0.5
0.5
0.5
0.5
0.5
0.5
0.5
0.5
0.5
0.5
0.5
0.5
0.5
0.5
0.5
0.5
0.5
0.5
0.5
0.5
0.5
0.5
0.5
0.5
0.5
0.5
0.5
0.5
0.5
0.5
0.5
0.5
0.5
0.5
0.5
0.5
0.5
0.5
0.5
0.5
0.5
0.5
0.5
0.5
0.5
0.5
0.5
0.5
0.5
0.5
0.5
0.5
0.5
0.5
0.5
0.5
0.5
0.5
0.5
0.5
0.5
0.5
0.5
0.5
0.5
0.5
0.5
0.5
0.5
0.5
0.5
0.5
0.5
0.5
0.5
0.5
0.5
0.5
0.5
0.5
0.5
0.5
0.5
0.5
0.5
0.5
0.5
0.5
0.5
0.5
0.5
0.55
0.5
0.5
0.5
0.5
0.5
0.5
0.5
0.5
0.5
0.5
0.5
0.5
0.5
0.5
0.5
0.5
0.5
0.5
0.5
0.5
0.5
0.5
0.5
0.5
0.5
0.5
0.5
0.5
0.5
0.5
0.5
0.5
0.5
0.5
0.5
0.5
0.5
0.5
0.55
0.5
0.5
0.5
0.5

SCALARS name double
LOOKUP_TABLE default
91
219
21
180
99
261
48
264
218
240
54
26
197
55
188
109
222
250
40
132
169
15
97
235
248
1
159
152
44
86
196
74
11
136
201
236
52
35
175
198
31
60
29
118
200
138
89
214
63
36
237
76
141
96
3
37
78
94
165
234
168
120
190
212
122
7
220
93
154
224
69
241
67
100
243
16
70
62
263
71
208
251
163
149
204
211
231
115
177
32
144
199
182
114
57
85
225
166
22
207
33
156
64
167
246
245
23
87
242
183
228
194
258
192
170
229
10
119
124
13
189
66
2
61
106
139
147
178
158
39
133
140
88
160
73
121
6
150
142
259
113
256
4
47
252
262
128
103
49
24
249
226
143
148
95
216
38
146
230
265
135
79
253
17
134
27
116
191
257
171
254
104
217
84
59
25
125
123
205
238
8
46
153
227
34
75
107
232
5
145
20
50
206
80
28
19
244
77
157
117
9
51
260
172
130
210
110
161
213
186
185
181
101
127
209
58
215
187
14
83
162
18
53
105
247
255
90
56
92
239
68
102
195
155
129
202
111
12
151
0
72
43
98
266
81
42
41
223
82
176
203
184
112
267
126
164
193
45
108
137
233
173
65
131
30
174
221
179

SCALARS interaction_phenotype double
LOOKUP_TABLE default
0
0
0
0
0
0
0
0
0
0
0
0
0
0
0
0
0
0
0
0
0
0
0
0
0
0
0
0
0
0
0
0
0
0
0
0
0
0
0
0
0
0
0
0
0
0
0
0
0
0
0
0
0
0
0
0
0
0
0
0
0
0
0
0
0
0
0
0
0
0
0
0
0
0
0
0
0
0
0
0
0
0
0
0
0
0
0
0
0
0
0
0
0
0
0
0
0
0
0
0
0
0
0
0
0
0
0
0
0
0
0
0
0
0
0
0
0
0
0
0
0
0
0
0
0
0
0
0
0
0
0
0
0
0
0
0
0
0
0
0
0
0
0
0
0
0
0
0
0
0
0
0
0
0
0
0
0
0
0
0
0
0
0
0
0
0
0
0
0
0
0
0
0
0
0
0
0
0
0
0
0
0
0
0
0
0
0
0
0
0
0
0
0
0
0
0
0
0
0
0
0
0
0
0
0
0
0
0
0
0
0
0
0
0
0
0
0
0
0
0
0
0
0
0
0
0
0
0
0
0
0
0
0
0
0
0
0
0
0
0
0
0
0
0
0
0
0
0
0
0
0
0
0
0
0
0
0
0
0
0
0
0
0
0
0
0
0
0

SCALARS vessel_interaction double
LOOKUP_TABLE default
0
0
0
0
0
0
0
0
0
0
0
0
0
0
0
0
0
0
0
0
0
0
0
0
0
0
0
0
0
0
0
0
0
0
0
0
0
0
0
0
0
0
0
0
0
0
0
0
0
0
0
0
0
0
0
0
0
0
0
0
0
0
0
0
0
0
0
0
0
0
0
0
0
0
0
0
0
0
0
0
0
0
0
0
0
0
0
0
0
0
0
0
0
0
0
0
0
0
0
0
0
0
0
0
0
0
0
0
0
0
0
0
0
0
0
0
0
0
0
0
0
0
0
0
0
0
0
0
0
0
0
0
0
0
0
0
0
0
0
0
0
0
0
0
0
0
0
0
0
0
0
0
0
0
0
0
0
0
0
0
0
0
0
0
0
0
0
0
0
0
0
0
0
0
0
0
0
0
0
0
0
0
0
0
0
0
0
0
0
0
0
0
0
0
0
0
0
0
0
0
0
0
0
0
0
0
0
0
0
0
0
0
0
0
0
0
0
0
0
0
0
0
0
0
0
0
0
0
0
0
0
0
0
0
0
0
0
0
0
0
0
0
0
0
0
0
0
0
0
0
0
0
0
0
0
0
0
0
0
0
0
0
0
0
0
0
0
0

SCALARS is_follower double
LOOKUP_TABLE default
1
1
1
1
1
1
1
1
1
1
1
1
1
1
1
1
1
1
1
1
1
1
1
1
1
1
1
1
1
1
1
1
1
1
1
1
1
1
1
1
1
1
1
1
1
1
1
1
1
1
1
1
1
1
1
1
1
1
1
1
1
1
1
1
1
1
1
1
1
1
1
1
1
1
1
1
1
1
1
1
1
1
1
1
1
1
1
1
1
1
1
1
1
1
1
1
1
1
1
1
1
1
1
1
1
1
1
1
1
1
1
1
1
1
1
1
1
1
1
1
1
1
1
1
1
1
1
1
1
1
1
1
1
1
1
1
1
1
1
1
1
1
1
1
1
1
1
1
1
1
1
1
1
1
1
1
1
1
1
1
1
1
1
1
1
1
1
1
1
1
1
1
1
1
1
1
1
1
1
1
1
1
1
1
1
1
1
1
1
1
1
1
1
1
1
1
1
1
1
1
1
1
1
1
1
1
1
1
1
1
1
1
1
1
1
1
1
1
1
1
1
1
1
1
1
1
1
1
1
1
1
1
1
1
1
1
1
1
1
1
1
1
1
1
1
1
1
1
1
1
1
1
1
1
1
1
1
1
1
1
1
1
1
1
1
1
1
1

SCALARS polarised double
LOOKUP_TABLE default
0
0
0
0
0
0
0
0
0
0
0
0
0
0
0
0
0
0
0
0
0
0
0
0
0
0
0
0
0
0
0
0
0
0
0
0
0
0
0
0
0
0
0
0
0
0
0
0
0
0
0
0
0
0
0
0
0
0
0
0
0
0
0
0
0
0
0
0
0
0
0
0
0
0
0
0
0
0
0
0
0
0
0
0
0
0
0
0
0
0
0
0
0
0
0
0
0
0
0
0
0
0
0
0
0
0
0
0
0
0
0
0
0
0
0
0
0
0
0
0
0
0
0
0
0
0
0
0
0
0
0
0
0
0
0
0
0
0
0
0
0
0
0
0
0
0
0
0
0
0
0
0
0
0
0
0
0
0
0
0
0
0
0
0
0
0
0
0
0
0
0
0
0
0
0
0
0
0
0
0
0
0
0
0
0
0
0
0
0
0
0
0
0
0
0
0
0
0
0
0
0
0
0
0
0
0
0
0
0
0
0
0
0
0
0
0
0
0
0
0
0
0
0
0
0
0
0
0
0
0
0
0
0
0
0
0
0
0
0
0
0
0
0
0
0
0
0
0
0
0
0
0
0
0
0
0
0
0
0
0
0
0
0
0
0
0
0
0

