# vtk DataFile Version 2.0
Unstructured grid legacy vtk file with point scalar data
ASCII

DATASET UNSTRUCTURED_GRID
POINTS 27 double
74.7167 109.752 100.834
82.105 105.321 100.279
78.0045 105.528 106.808
94.801 101.086 94.1798
89.9301 103.359 100.799
91.1943 97.2306 109.151
97.6328 93.7508 96.4342
102.522 93.6905 102.486
102.533 101.077 97.8512
96.9197 99.4857 103.206
98.9848 103.073 110.554
103.814 98.4097 115.473
97.6699 103.658 119.151
96.2899 108.129 89.3479
96.9769 107.557 98.6445
103.251 105.133 104.543
100.881 111.416 113.476
97.2421 110.422 106.14
99.3455 117.541 103.511
100.609 116.08 95.6099
109.571 99.2399 94.2449
107.582 102.104 86.383
106.023 97.8818 107.854
108.503 104.68 110.651
105.105 109.492 98.0012
106.548 112.212 106.32
108.694 108.192 118.178

POINT_DATA 27
SCALARS radius double
LOOKUP_TABLE default
4.87271
5.0053
4.87271
5.09809
5.04636
5.03728
5.03728
5.0053
5.08666
5.03728
5.0053
5.04636
5.04636
5.08666
5.09809
5.0053
5.07271
5.07271
5.07271
5.07271
5.08666
5.08666
5.0053
5.0053
5.03728
5.03728
5.0053

SCALARS status double
LOOKUP_TABLE default
1
1
1
1
1
1
1
1
1
1
1
1
1
1
1
1
1
1
1
1
1
1
1
1
1
1
1

SCALARS concentration double
LOOKUP_TABLE default
38.9575
38.9575
38.9575
38.9575
38.9575
38.9575
38.9575
38.9575
38.9575
38.9575
38.9575
38.9575
38.9575
38.9575
38.9575
38.9575
38.9575
38.9575
38.9575
38.9575
38.9575
38.9575
38.9575
38.9575
38.9575
38.9575
38.9575

SCALARS fibres double
LOOKUP_TABLE default
0
0
0
0
0
0
0
0
0
0
0
0
0
0
0
0
0
0
0
0
0
0
0
0
0
0
0

SCALARS phenot double
LOOKUP_TABLE default
7
7
7
7
7
7
7
7
7
7
7
7
7
7
7
7
7
7
7
7
7
7
7
7
7
7
7

SCALARS cont_pheno double
LOOKUP_TABLE default
0.5
0.5
0.5
0.5
0.5
0.5
0.5
0.5
0.5
0.5
0.5
0.5
0.5
0.5
0.5
0.5
0.5
0.5
0.5
0.5
0.5
0.5
0.5
0.5
0.5
0.5
0.5

SCALARS name double
LOOKUP_TABLE default
21
15
26
2
11
1
3
23
0
10
4
13
16
6
7
20
14
22
17
24
5
25
8
12
9
18
19

SCALARS interaction_phenotype double
LOOKUP_TABLE default
0
0
0
0
0
0
0
0
0
0
0
0
0
0
0
0
0
0
0
0
0
0
0
0
0
0
0

SCALARS vessel_interaction double
LOOKUP_TABLE default
0
0
0
0
0
0
0
0
0
0
0
0
0
0
0
0
0
0
0
0
0
0
0
0
0
0
0

SCALARS is_follower double
LOOKUP_TABLE default
1
1
1
1
1
1
1
1
1
1
1
1
1
1
1
1
1
1
1
1
1
1
1
1
1
1
1

SCALARS polarised double
LOOKUP_TABLE default
0
0
0
0
0
0
0
0
0
0
0
0
0
0
0
0
0
0
0
0
0
0
0
0
0
0
0

