# vtk DataFile Version 2.0
Unstructured grid legacy vtk file with point scalar data
ASCII

DATASET UNSTRUCTURED_GRID
POINTS 254 double
65.754 98.455 103.554
65.2073 108.566 94.3261
64.7675 114.134 100.963
64.7553 106.953 105.247
65.0099 116.877 92.7888
75.5888 99.0679 90.5472
72.9071 98.0031 99.1457
68.9175 104.12 99.0882
72.69 102.835 106.716
75.453 104.399 114.672
73.5258 107.313 93.1144
72.1197 113.736 88.0379
71.879 110.084 101.578
68.9424 108.284 111.874
73.0183 111.196 107.924
75.4003 113.143 114.268
69.1701 107.331 119.777
75.2437 114.468 79.143
72.2825 114.913 96.4645
84.9827 83.6734 106.302
81.3229 91.2658 95.0643
81.5342 89.7911 101.972
82.8373 92.0018 110.194
76.4894 94.8724 105.674
78.1831 92.4493 117.491
82.1956 91.2128 125.389
82.9924 95.8787 89.9419
80.8444 103.625 94.1874
78.4428 95.5367 96.9487
83.1768 98.5138 101.23
77.3194 104.766 100.422
80.3845 103.963 107.213
83.6581 102.978 114.169
76.2601 99.7286 121.643
84.5122 97.8826 120.449
81.3429 99.4073 128.061
82.8584 111.473 80.5085
79.9336 109.919 88.4703
80.0275 111.981 97.7901
85.6129 106.427 101.458
82.6638 110.728 111.647
78.035 110.45 105.949
83.757 106.818 120.972
82.289 119.198 83.4611
78.3041 117.909 91.5397
84.321 119.583 97.0292
84.7023 114.45 103.949
79.4907 120.066 113.869
84.7143 118.369 109.35
81.1548 114.772 120.023
83.3874 124.37 104.133
94.1779 84.8921 93.2152
91.9148 85.5612 101.807
94.7334 93.2783 82.8376
86.2322 92.6041 82.7426
88.2732 91.0481 96.4261
88.7757 93.2014 104.426
89.7112 88.1079 110.277
94.6908 88.8242 116.095
86.7197 89.6772 118.237
92.1833 94.1852 122.307
89.4705 98.6278 78.8524
90.1232 97.7815 87.5302
93.3134 104.355 90.4693
93.4885 96.3749 94.9353
87.5209 100.558 94.9826
91.3715 100.651 101.593
86.653 99.455 108.047
89.8706 95.6767 113.976
94.1662 99.8382 107.323
91.1651 102.122 118.809
87.6002 103.266 125.878
92.8618 99.7574 127.307
91.4004 104.644 133.803
89.6236 108.35 66.6788
91.875 112.822 72.195
89.0125 106.35 81.6473
94.8588 110.408 85.0933
89.694 111.965 76.884
87.574 113.586 87.5
94.6664 112.641 92.6895
87.0047 108.481 93.1211
93.3416 107.486 98.647
88.7934 113.636 98.1524
94.4183 113.116 104.029
89.7771 106.87 109.045
91.9973 108.732 122.804
88.7924 120.324 73.5461
90.5713 116.75 80.9776
88.1787 121.412 89.1841
92.9791 120.015 96.1966
90.8636 120.071 104.837
90.0174 122.945 112.845
88.4845 114.918 115.735
94.829 115.599 120.486
89.5441 124.577 81.3537
94.5702 126.419 90.543
90.5623 128.321 97.6048
92.1918 126.837 106.36
99.2603 83.1263 86.5385
99.9186 85.0191 100.691
103.701 80.2628 97.7577
102.496 78.4931 105.086
100.862 78.3711 113.582
97.7827 85.1535 108.453
101.685 91.9432 78.255
99.0871 90.4049 89.503
97.205 91.0802 98.2406
104.788 94.2161 98.5324
103.235 90.6589 105.462
102.21 89.5788 113.598
96.1584 93.381 108.981
98.7677 88.7016 122.85
104.532 94.8816 123.135
102.402 100.948 76.8779
95.7854 101.651 82.7151
104.212 98.4778 84.3255
98.184 98.528 89.5981
98.3975 97.0042 102.489
104.758 100.815 102.857
98.8375 102.218 96.6285
95.5036 101.337 112.707
102.022 103.897 113.108
103.725 97.0281 110.585
98.2045 96.353 117.208
99.0963 104.068 121.275
99.0025 102.435 130.313
97.4063 111.321 69.2185
95.9345 106.371 76.0154
104.791 110.309 70.3938
104.302 108.759 76.2479
101.613 106.716 82.6016
98.1332 113.461 78.302
100.595 107.512 90.7667
102.581 108.132 100.066
97.4325 105.806 105.598
101.441 111.092 108.124
102.727 109.496 113.656
95.4984 108.882 114.709
104.246 110.631 117.572
102.255 109.199 131.815
104.469 114.532 64.4594
96.9776 119.234 72.705
102.769 116.437 83.8276
103.148 121.606 85.3125
95.3737 118.489 87.1115
101.284 118.253 91.7751
100.023 115.518 98.6355
100.116 119.137 105.564
95.5594 116.687 112.06
96.1543 123.486 117.834
101.904 117.772 118.667
99.6353 115.607 126.747
102.955 123.04 124.784
98.6889 119.765 133.99
97.6443 125.277 81.772
102.527 125.807 90.1354
97.8052 124.301 86.3836
97.2274 125.073 101.456
100.02 128.42 95.8944
97.474 133.026 99.2633
101.848 131.374 105.612
96.5091 127.309 111.094
104.316 125.023 109.754
101.676 131.768 113.83
104.493 125.519 133.102
107.991 75.3689 97.2123
106.633 80.3704 84.8296
108.684 84.1048 104.107
114.232 84.7699 97.3624
107.248 83.5137 112.646
108.791 90.6604 85.4491
105.1 95.0367 91.1792
105.715 86.0677 90.5366
112.23 92.4075 93.7433
107.044 87.2885 97.621
110.234 90.9349 109.97
106.43 86.9484 120.361
110.392 94.0402 117.661
109.573 94.115 129.704
109.217 104.807 69.9097
109.23 95.8722 78.1811
109.951 104.38 78.5308
112.616 97.7927 86.4901
106.648 102.856 94.6842
111.899 96.0953 102.781
111.601 98.8828 110.835
106.882 101.926 119.522
106.235 101.968 127.517
114.269 101.977 127.009
105.711 102.807 135.959
107.976 111.858 82.2577
108.698 104.965 86.7934
114.317 108.843 91.2656
106.697 112.604 89.8393
110.017 110.594 97.4053
113.818 112.476 104.991
110.579 106.659 113.557
108.058 107.199 105.712
112.47 108.535 121.568
105.053 109.15 124.712
110.8 107.787 131.936
105.727 111.291 138.613
107.06 116.36 75.5836
110.69 119.114 85.8536
108.809 118.579 93.872
105.135 123.353 99.9507
106.815 115.556 103.137
113.499 119.728 100.253
104.827 116.689 111.717
111.933 119.478 108.657
111.945 114.659 115.349
109.448 122.346 116.469
108.329 116.52 122.831
113.349 114.392 127.978
106.329 117.284 131.717
114.051 121.548 125.891
107.424 126.912 83.2258
110.889 125.765 90.7041
106.822 130.55 94.5899
108.424 131.969 101.666
111.74 126.478 104.961
119.942 95.0605 90.6591
118.668 92.9531 98.4984
116.248 88.3689 104.823
118.062 94.1892 113.529
115.818 94.0654 124.16
119.797 97.4148 81.6649
114.774 100.117 95.0968
121.989 100.125 100.186
118.389 100.363 107.289
115.545 100.864 118.662
116.571 108.817 71.4173
115.019 112.321 78.4932
116.423 105.24 84.0167
121.572 105.496 77.4631
121.469 111.105 87.7186
121.042 105.91 94.457
114.512 104.882 101.382
118.291 112.416 98.5457
121.561 107.843 105.004
119.457 105.84 113.371
118.752 113.673 110.686
119.536 112.817 118.808
119.375 108.94 126.41
118.557 112.563 133.567
117.214 112.982 141.247
116.927 116.81 91.7598
119.831 119.571 105.158
115.837 119.651 119.659
123.018 121.108 117.816
123.605 116.91 124.934
118.033 124.429 95.0649
126.294 114.818 113.281

POINT_DATA 254
SCALARS radius double
LOOKUP_TABLE default
5.03939
5.03939
5.08931
5.03939
5.08931
5.07271
5.03939
4.83939
5.03939
5.03939
5.03939
5.08931
4.93939
5.09976
4.18931
5.03939
5.09976
5.07271
5.03939
5.0053
4.42621
5.0053
5.02621
5.0053
5.02621
5.0053
5.07271
5.08931
4.52621
5.02621
4.99976
4.99976
5.08931
5.03939
5.07271
5.07271
5.08931
5.04636
5.02621
5.07271
5.08931
4.28931
5.08931
5.02621
5.03939
5.0053
5.0053
4.99976
4.99976
5.08931
5.0053
5.09809
5.07271
5.04636
5.07271
5.0053
5.0053
5.08931
5.08931
5.07271
5.03939
5.07271
5.0053
5.0053
5.03939
5.07271
5.09976
5.02621
5.0053
4.69976
5.08931
4.69976
4.69976
5.08931
5.07271
4.27271
5.04636
5.08654
4.27271
5.02272
5.07271
5.07271
5.07271
5.0053
5.03939
5.09976
5.07271
5.02621
5.08931
5.03939
5.03939
5.03939
5.03939
5.08931
5.03939
5.02621
5.03939
5.03939
4.49976
5.08931
5.0053
4.73939
5.03939
5.03939
5.07271
5.04636
5.02621
5.0053
5.07271
5.09809
5.02621
5.03939
5.0053
5.02621
5.04636
5.04636
5.09809
5.03939
5.0053
5.08931
5.08931
4.79976
5.03939
5.07271
5.03939
5.08931
5.08931
5.02621
5.0053
4.67271
4.67271
5.09809
5.08654
5.0053
5.0053
5.02621
5.08931
4.03939
5.02621
4.13939
5.03939
5.02621
5.07271
4.39976
4.39976
5.06831
5.04768
5.04768
5.03939
5.08931
5.08931
5.08931
5.03939
5.04768
5.00635
4.14768
5.02621
4.14768
5.03939
4.49976
4.59976
5.07271
4.59976
5.07271
5.03939
5.00635
4.83939
5.08931
5.03939
5.03939
5.02621
5.09809
5.02621
4.99976
5.09809
4.99976
5.02621
5.07271
5.08931
5.07271
5.07271
5.04636
5.02621
5.09809
5.09809
5.07271
5.08931
5.03939
5.07271
5.08931
5.04768
5.08931
5.02621
5.0053
5.02621
5.07271
5.02621
5.09976
5.02621
5.08931
5.03939
5.04768
5.04768
5.03939
5.03939
5.02621
5.08931
5.03939
5.08931
5.08931
5.08931
5.02621
5.0053
5.08931
5.04768
5.04768
4.59976
5.09976
5.08931
4.88931
4.98931
5.07271
5.09809
5.03728
5.03939
5.08931
5.07271
5.07271
5.04636
5.04636
5.08931
5.03939
5.04636
5.08931
5.07271
5.04636
5.0053
5.04636
5.07271
5.07271
5.04768
5.04768
5.02621
5.03939
5.08931
5.00635
5.00635
5.02621
5.07271
4.59976
5.03939
5.03939
5.08931
5.02621

SCALARS status double
LOOKUP_TABLE default
1
1
1
1
1
1
1
1
1
1
1
1
1
1
1
1
1
1
1
1
1
1
1
1
1
1
1
1
1
1
1
1
1
1
1
1
1
1
1
1
1
1
1
1
1
1
1
1
1
1
1
1
1
1
1
1
2
1
1
1
1
1
1
1
1
1
1
1
2
1
1
1
1
1
1
1
1
1
1
1
1
1
1
1
1
1
1
1
1
1
1
1
1
1
1
1
1
1
1
1
1
1
1
1
1
1
1
1
1
1
1
1
1
1
1
1
1
1
1
1
1
1
1
1
1
1
1
1
1
1
1
1
1
1
1
1
1
1
1
1
1
1
1
1
1
1
1
1
1
1
1
1
1
1
1
1
1
1
1
1
1
1
1
1
1
1
1
1
1
1
1
1
1
1
1
1
1
1
1
1
1
1
1
1
1
1
1
1
1
1
1
1
1
1
1
1
1
1
1
1
1
1
1
1
1
1
1
1
1
1
1
1
1
1
1
1
1
1
1
1
1
1
1
1
1
1
1
1
1
1
1
1
1
1
1
1
1
1
1
1
1
1
1
1
1
1
1
1
1
1
1
1
1
1

SCALARS concentration double
LOOKUP_TABLE default
33.6655
35.1842
34.4128
34.7652
34.86
35.0223
36.4153
35.0611
35.4016
35.3189
35.1842
35.1842
35.0611
34.7652
36.9403
36.4044
34.7652
38.3969
36.6135
35.1196
36.1108
35.6299
35.0071
35.6299
35.0071
34.7393
36.1108
36.4153
36.1108
37.2165
36.4153
36.4153
37.6381
35.3189
35.8637
35.8637
38.3969
37.9921
36.9403
38.09
38.0035
36.9403
37.4803
38.3969
36.6135
38.2926
39.5437
38.2658
38.2658
38.0035
39.0578
35.5803
36.5692
37.9313
36.5237
36.3559
36.6892
38.1319
38.1319
35.9857
37.5292
36.5237
36.5237
38.9275
38.5913
37.5849
38.2641
37.2165
36.6892
37.8005
37.8005
37.5292
37.5292
37.9769
39.3081
38.7479
38.7088
41.2466
38.7479
41.2466
38.9275
38.09
38.9275
38.2926
40.3223
38.2641
39.2266
40.7712
38.3969
40.0877
40.4274
40.0073
40.0073
40.0073
41.0738
40.7712
42.2639
42.2639
42.9547
36.8527
37.319
36.3726
36.3726
36.3726
36.5692
37.9313
37.319
37.4989
37.319
38.1804
38.1319
38.2641
37.5493
40.1002
39.1766
38.4807
40.4254
38.5913
37.4989
39.6258
38.5913
37.8005
37.8005
40.2067
38.8638
38.9067
38.9213
41.7097
39.4678
41.4161
41.4161
40.8589
41.2466
40.834
40.834
39.2791
41.5773
40.1952
39.2791
40.1952
41.4952
41.7097
40.7712
42.8912
42.8912
41.2466
41.2466
41.2466
43.3481
41.2339
42.5431
42.7336
41.0738
43.1466
43.1466
43.53
44.128
43.53
41.7013
43.6386
43.6386
45.6046
42.9547
44.0719
42.9547
43.1466
36.3726
36.8527
37.9308
37.889
36.7162
38.7939
37.319
37.889
39.3469
37.889
39.348
38.1336
40.1002
39.973
42.1442
39.391
41.4361
40.9289
41.6302
39.9137
40.1002
40.3782
39.973
42.2831
42.393
43.5179
41.4361
43.2416
43.255
43.5434
43.3296
42.5379
43.3296
42.2831
41.4952
42.393
43.1466
44.2816
46.1285
44.128
43.3481
43.3481
44.8147
42.7336
44.8147
44.8147
45.7648
43.6875
44.3397
43.1466
46.3666
46.2952
46.3949
46.3146
46.3146
46.6918
40.9289
41.0433
37.9308
41.2407
40.1002
43.2328
41.6302
43.081
41.7636
42.0702
44.655
43.5179
43.2328
44.655
43.2416
41.6302
43.3296
46.4606
44.0709
44.0709
46.8938
45.4864
45.3167
44.3397
44.3397
46.3949
46.8938
46.3666
48.8627
48.8627
46.3949
46.8938

SCALARS fibres double
LOOKUP_TABLE default
0
0
0
0
0
0
0
0
0
0
0
0
0
0
0
0
0
0
0
0
0
0
0
0
0
0
0
0
0
0
0
0
0
0
0
0
0
0
0
0
0
0
0
0
0
0
0
0
0
0
0
0
0
0
0
0
0
0
0
0
0
0
0
0
0
0
0
0
0
0
0
0
0
0
0
0
0
0
0
0
0
0
0
0
0
0
0
0
0
0
0
0
0
0
0
0
0
0
0
0
0
0
0
0
0
0
0
0
0
0
0
0
0
0
0
0
0
0
0
0
0
0
0
0
0
0
0
0
0
0
0
0
0
0
0
0
0
0
0
0
0
0
0
0
0
0
0
0
0
0
0
0
0
0
0
0
0
0
0
0
0
0
0
0
0
0
0
0
0
0
0
0
0
0
0
0
0
0
0
0
0
0
0
0
0
0
0
0
0
0
0
0
0
0
0
0
0
0
0
0
0
0
0
0
0
0
0
0
0
0
0
0
0
0
0
0
0
0
0
0
0
0
0
0
0
0
0
0
0
0
0
0
0
0
0
0
0
0
0
0
0
0
0
0
0
0
0
0
0
0
0
0
0
0

SCALARS phenot double
LOOKUP_TABLE default
7
7
7
7
7
7
7
7
7
7
7
7
7
7
7
7
7
7
7
7
7
7
7
7
7
7
7
7
7
7
7
7
7
7
7
7
7
7
7
7
7
7
7
7
7
7
7
7
7
7
7
7
7
7
7
7
7
7
7
7
7
7
7
7
7
7
7
7
7
7
7
7
7
7
7
7
7
7
7
7
7
7
7
7
7
7
7
7
7
7
7
7
7
7
7
7
7
7
7
7
7
7
7
7
7
7
7
7
7
7
7
7
7
7
7
7
7
7
7
7
7
7
7
7
7
7
7
7
7
7
7
7
7
7
7
7
7
7
7
7
7
7
7
7
7
7
7
7
7
7
7
7
7
7
7
7
7
7
7
7
7
7
7
7
7
7
7
7
7
7
7
7
7
7
7
7
7
7
7
7
7
7
7
7
7
7
7
7
7
7
7
7
7
7
7
7
7
7
7
7
7
7
7
7
7
7
7
7
7
7
7
7
7
7
7
7
7
7
7
7
7
7
7
7
7
7
7
7
7
7
7
7
7
7
7
7
7
7
7
7
7
7
7
7
7
7
7
7
7
7
7
7
7
7

SCALARS cont_pheno double
LOOKUP_TABLE default
0.5
0.5
0.5
0.5
0.5
0.5
0.5
0.5
0.5
0.5
0.5
0.5
0.5
0.5
0.5
0.5
0.5
0.5
0.5
0.5
0.5
0.5
0.5
0.5
0.5
0.5
0.5
0.5
0.5
0.5
0.5
0.5
0.5
0.5
0.5
0.5
0.5
0.5
0.5
0.5
0.5
0.5
0.5
0.5
0.5
0.5
0.5
0.5
0.5
0.5
0.5
0.5
0.5
0.5
0.5
0.5
0.45
0.5
0.5
0.5
0.5
0.5
0.5
0.5
0.5
0.5
0.5
0.5
0.45
0.5
0.5
0.5
0.5
0.5
0.5
0.5
0.5
0.5
0.5
0.5
0.5
0.5
0.5
0.5
0.5
0.5
0.5
0.5
0.5
0.5
0.5
0.5
0.5
0.5
0.5
0.5
0.5
0.5
0.5
0.5
0.5
0.5
0.5
0.5
0.5
0.5
0.5
0.5
0.5
0.5
0.5
0.5
0.5
0.5
0.5
0.5
0.5
0.5
0.5
0.5
0.5
0.5
0.5
0.5
0.5
0.5
0.5
0.5
0.5
0.5
0.5
0.5
0.5
0.5
0.5
0.5
0.5
0.5
0.5
0.5
0.5
0.5
0.5
0.5
0.5
0.5
0.5
0.5
0.5
0.5
0.5
0.5
0.5
0.5
0.5
0.5
0.5
0.5
0.5
0.5
0.5
0.5
0.5
0.5
0.5
0.5
0.5
0.5
0.5
0.5
0.5
0.5
0.5
0.5
0.5
0.5
0.5
0.5
0.5
0.5
0.5
0.5
0.5
0.5
0.5
0.5
0.5
0.5
0.5
0.5
0.5
0.5
0.5
0.5
0.5
0.5
0.5
0.5
0.5
0.5
0.5
0.5
0.5
0.5
0.5
0.5
0.5
0.5
0.5
0.5
0.5
0.5
0.5
0.5
0.5
0.5
0.55
0.5
0.5
0.5
0.5
0.5
0.5
0.5
0.5
0.5
0.5
0.5
0.5
0.5
0.5
0.5
0.5
0.5
0.5
0.5
0.5
0.5
0.5
0.5
0.5
0.5
0.5
0.5
0.5
0.5
0.5
0.5
0.5
0.55
0.5
0.5
0.5
0.5

SCALARS name double
LOOKUP_TABLE default
91
219
21
180
99
48
218
240
54
26
55
188
109
222
250
40
132
169
15
97
248
1
159
152
44
86
196
74
11
136
201
236
52
197
35
175
198
31
60
29
118
200
138
89
214
36
63
76
237
141
96
3
37
78
235
94
165
234
168
120
190
212
122
7
220
93
154
224
69
241
67
100
243
16
70
62
71
208
251
163
149
204
211
231
115
177
32
199
182
114
85
225
166
22
207
156
64
167
246
23
87
242
183
228
194
192
170
229
205
10
119
124
13
189
66
2
61
106
139
20
147
178
158
39
133
140
88
160
73
244
121
6
150
142
113
4
47
252
144
110
128
103
49
24
249
57
226
143
148
95
33
216
38
146
230
135
79
253
17
134
245
27
116
68
191
171
104
217
84
195
59
25
232
125
123
238
8
46
153
227
34
75
107
5
145
50
206
80
28
42
19
77
157
9
117
51
172
130
210
161
213
186
181
101
127
209
58
215
187
14
83
162
18
53
185
105
247
90
56
92
239
102
155
129
202
111
12
151
0
72
98
81
41
223
82
176
203
184
43
112
126
164
193
45
108
137
233
173
65
131
30
174
221
179

SCALARS interaction_phenotype double
LOOKUP_TABLE default
0
0
0
0
0
0
0
0
0
0
0
0
0
0
0
0
0
0
0
0
0
0
0
0
0
0
0
0
0
0
0
0
0
0
0
0
0
0
0
0
0
0
0
0
0
0
0
0
0
0
0
0
0
0
0
0
0
0
0
0
0
0
0
0
0
0
0
0
0
0
0
0
0
0
0
0
0
0
0
0
0
0
0
0
0
0
0
0
0
0
0
0
0
0
0
0
0
0
0
0
0
0
0
0
0
0
0
0
0
0
0
0
0
0
0
0
0
0
0
0
0
0
0
0
0
0
0
0
0
0
0
0
0
0
0
0
0
0
0
0
0
0
0
0
0
0
0
0
0
0
0
0
0
0
0
0
0
0
0
0
0
0
0
0
0
0
0
0
0
0
0
0
0
0
0
0
0
0
0
0
0
0
0
0
0
0
0
0
0
0
0
0
0
0
0
0
0
0
0
0
0
0
0
0
0
0
0
0
0
0
0
0
0
0
0
0
0
0
0
0
0
0
0
0
0
0
0
0
0
0
0
0
0
0
0
0
0
0
0
0
0
0
0
0
0
0
0
0
0
0
0
0
0
0

SCALARS vessel_interaction double
LOOKUP_TABLE default
0
0
0
0
0
0
0
0
0
0
0
0
0
0
0
0
0
0
0
0
0
0
0
0
0
0
0
0
0
0
0
0
0
0
0
0
0
0
0
0
0
0
0
0
0
0
0
0
0
0
0
0
0
0
0
0
0
0
0
0
0
0
0
0
0
0
0
0
0
0
0
0
0
0
0
0
0
0
0
0
0
0
0
0
0
0
0
0
0
0
0
0
0
0
0
0
0
0
0
0
0
0
0
0
0
0
0
0
0
0
0
0
0
0
0
0
0
0
0
0
0
0
0
0
0
0
0
0
0
0
0
0
0
0
0
0
0
0
0
0
0
0
0
0
0
0
0
0
0
0
0
0
0
0
0
0
0
0
0
0
0
0
0
0
0
0
0
0
0
0
0
0
0
0
0
0
0
0
0
0
0
0
0
0
0
0
0
0
0
0
0
0
0
0
0
0
0
0
0
0
0
0
0
0
0
0
0
0
0
0
0
0
0
0
0
0
0
0
0
0
0
0
0
0
0
0
0
0
0
0
0
0
0
0
0
0
0
0
0
0
0
0
0
0
0
0
0
0
0
0
0
0
0
0

SCALARS is_follower double
LOOKUP_TABLE default
1
1
1
1
1
1
1
1
1
1
1
1
1
1
1
1
1
1
1
1
1
1
1
1
1
1
1
1
1
1
1
1
1
1
1
1
1
1
1
1
1
1
1
1
1
1
1
1
1
1
1
1
1
1
1
1
1
1
1
1
1
1
1
1
1
1
1
1
1
1
1
1
1
1
1
1
1
1
1
1
1
1
1
1
1
1
1
1
1
1
1
1
1
1
1
1
1
1
1
1
1
1
1
1
1
1
1
1
1
1
1
1
1
1
1
1
1
1
1
1
1
1
1
1
1
1
1
1
1
1
1
1
1
1
1
1
1
1
1
1
1
1
1
1
1
1
1
1
1
1
1
1
1
1
1
1
1
1
1
1
1
1
1
1
1
1
1
1
1
1
1
1
1
1
1
1
1
1
1
1
1
1
1
1
1
1
1
1
1
1
1
1
1
1
1
1
1
1
1
1
1
1
1
1
1
1
1
1
1
1
1
1
1
1
1
1
1
1
1
1
1
1
1
1
1
1
1
1
1
1
1
1
1
1
1
1
1
1
1
1
1
1
1
1
1
1
1
1
1
1
1
1
1
1

SCALARS polarised double
LOOKUP_TABLE default
0
0
0
0
0
0
0
0
0
0
0
0
0
0
0
0
0
0
0
0
0
0
0
0
0
0
0
0
0
0
0
0
0
0
0
0
0
0
0
0
0
0
0
0
0
0
0
0
0
0
0
0
0
0
0
0
0
0
0
0
0
0
0
0
0
0
0
0
0
0
0
0
0
0
0
0
0
0
0
0
0
0
0
0
0
0
0
0
0
0
0
0
0
0
0
0
0
0
0
0
0
0
0
0
0
0
0
0
0
0
0
0
0
0
0
0
0
0
0
0
0
0
0
0
0
0
0
0
0
0
0
0
0
0
0
0
0
0
0
0
0
0
0
0
0
0
0
0
0
0
0
0
0
0
0
0
0
0
0
0
0
0
0
0
0
0
0
0
0
0
0
0
0
0
0
0
0
0
0
0
0
0
0
0
0
0
0
0
0
0
0
0
0
0
0
0
0
0
0
0
0
0
0
0
0
0
0
0
0
0
0
0
0
0
0
0
0
0
0
0
0
0
0
0
0
0
0
0
0
0
0
0
0
0
0
0
0
0
0
0
0
0
0
0
0
0
0
0
0
0
0
0
0
0

