# vtk DataFile Version 3.0
Vessels output - vtk 
ASCII
DATASET UNSTRUCTURED_GRID
POINTS 2 double
150 150 0
150 150 200
CELLS 1 3
2 0 1
CELL_TYPES 1
3
CELL_DATA  1
SCALARS length float
LOOKUP_TABLE default
200
SCALARS vessel_name double
LOOKUP_TABLE default
0
SCALARS vessel_radius double
LOOKUP_TABLE default
20
