# vtk DataFile Version 2.0
Unstructured grid legacy vtk file with point scalar data
ASCII

DATASET UNSTRUCTURED_GRID
POINTS 32 double
74.8216 110.351 101.318
81.53 105.683 100.183
77.6927 104.894 107.727
94.4293 101.773 93.7612
88.6522 103.701 99.9725
90.6825 97.6916 110.231
95.2125 104.766 118.068
93.5455 110.129 93.1003
98.0475 93.4601 95.1692
103.341 92.7809 101.145
102.485 100.788 97.2936
95.7617 102.76 102.512
97.1198 95.8728 105.363
97.7461 102.665 110.596
102.164 98.1203 116.145
102.29 104.257 121.641
97.8806 108.379 88.1133
98.4257 108.865 98.4151
103.216 105.166 104.238
104.059 113.583 102.088
101.715 109.289 114.235
97.3563 110.459 106.527
100.096 115.974 94.4758
97.8379 118.766 103.031
110.297 98.3258 94.2857
107.374 102.088 86.9777
104.825 97.1841 108.342
108.256 104.076 110.28
106.289 108.245 97.009
107.909 112.352 108.899
107.189 110.641 121.314
111.362 108.741 115.086

POINT_DATA 32
SCALARS radius double
LOOKUP_TABLE default
5.07271
5.0053
5.07271
5.09809
5.04636
5.03728
5.0053
4.53728
5.03728
5.0053
5.08666
5.09809
5.09809
5.0053
5.04636
5.0053
4.43728
5.09809
5.0053
5.09809
5.07271
5.07271
5.07271
5.07271
5.08666
5.08666
5.0053
5.0053
5.03728
5.09809
5.07271
5.07271

SCALARS status double
LOOKUP_TABLE default
1
1
1
1
1
1
1
1
1
1
1
1
1
1
1
1
1
1
1
1
1
1
1
1
1
1
1
1
1
1
1
1

SCALARS concentration double
LOOKUP_TABLE default
38.9575
38.9575
38.9575
38.9575
38.9575
38.9575
38.9575
38.9575
38.9575
38.9575
38.9575
38.9575
38.9575
38.9575
38.9575
38.9575
38.9575
38.9575
38.9575
38.9575
38.9575
38.9575
38.9575
38.9575
38.9575
38.9575
38.9575
38.9575
38.9575
38.9575
38.9575
38.9575

SCALARS fibres double
LOOKUP_TABLE default
0
0
0
0
0
0
0
0
0
0
0
0
0
0
0
0
0
0
0
0
0
0
0
0
0
0
0
0
0
0
0
0

SCALARS phenot double
LOOKUP_TABLE default
7
7
7
7
7
7
7
7
7
7
7
7
7
7
7
7
7
7
7
7
7
7
7
7
7
7
7
7
7
7
7
7

SCALARS cont_pheno double
LOOKUP_TABLE default
0.5
0.5
0.5
0.5
0.5
0.5
0.5
0.5
0.5
0.5
0.5
0.5
0.5
0.5
0.5
0.5
0.5
0.5
0.5
0.5
0.5
0.5
0.5
0.5
0.5
0.5
0.5
0.5
0.5
0.5
0.5
0.5

SCALARS name double
LOOKUP_TABLE default
21
15
26
2
11
1
16
31
3
23
0
29
10
4
13
28
6
7
20
27
14
22
24
17
5
25
8
12
9
18
19
30

SCALARS interaction_phenotype double
LOOKUP_TABLE default
0
0
0
0
0
0
0
0
0
0
0
0
0
0
0
0
0
0
0
0
0
0
0
0
0
0
0
0
0
0
0
0

SCALARS vessel_interaction double
LOOKUP_TABLE default
0
0
0
0
0
0
0
0
0
0
0
0
0
0
0
0
0
0
0
0
0
0
0
0
0
0
0
0
0
0
0
0

SCALARS is_follower double
LOOKUP_TABLE default
1
1
1
1
1
1
1
1
1
1
1
1
1
1
1
1
1
1
1
1
1
1
1
1
1
1
1
1
1
1
1
1

SCALARS polarised double
LOOKUP_TABLE default
0
0
0
0
0
0
0
0
0
0
0
0
0
0
0
0
0
0
0
0
0
0
0
0
0
0
0
0
0
0
0
0

