# vtk DataFile Version 2.0
Unstructured grid legacy vtk file with point scalar data
ASCII

DATASET UNSTRUCTURED_GRID
POINTS 2 double
95.1953 99.08 102.921
101.284 100.331 99.7234

POINT_DATA 2
SCALARS radius double
LOOKUP_TABLE default
4.4685
4.3685

SCALARS status double
LOOKUP_TABLE default
1
1

SCALARS concentration double
LOOKUP_TABLE default
38.9575
38.9575

SCALARS fibres double
LOOKUP_TABLE default
0
0

SCALARS phenot double
LOOKUP_TABLE default
7
7

SCALARS cont_pheno double
LOOKUP_TABLE default
0.5
0.5

SCALARS name double
LOOKUP_TABLE default
1
0

SCALARS interaction_phenotype double
LOOKUP_TABLE default
0
0

SCALARS vessel_interaction double
LOOKUP_TABLE default
0
0

SCALARS is_follower double
LOOKUP_TABLE default
1
1

SCALARS polarised double
LOOKUP_TABLE default
0
0

