# vtk DataFile Version 2.0
Unstructured grid legacy vtk file with point scalar data
ASCII

DATASET UNSTRUCTURED_GRID
POINTS 3 double
94.7218 103.208 97.805
95.256 98.1608 104.558
102.304 100.39 100.477

POINT_DATA 3
SCALARS radius double
LOOKUP_TABLE default
5.02287
5.02287
5.0685

SCALARS status double
LOOKUP_TABLE default
1
1
1

SCALARS concentration double
LOOKUP_TABLE default
38.9575
38.9575
38.9575

SCALARS fibres double
LOOKUP_TABLE default
0
0
0

SCALARS phenot double
LOOKUP_TABLE default
7
7
7

SCALARS cont_pheno double
LOOKUP_TABLE default
0.5
0.5
0.5

SCALARS name double
LOOKUP_TABLE default
2
1
0

SCALARS interaction_phenotype double
LOOKUP_TABLE default
0
0
0

SCALARS vessel_interaction double
LOOKUP_TABLE default
0
0
0

SCALARS is_follower double
LOOKUP_TABLE default
1
1
1

SCALARS polarised double
LOOKUP_TABLE default
0
0
0

