# vtk DataFile Version 2.0
Unstructured grid legacy vtk file with point scalar data
ASCII

DATASET UNSTRUCTURED_GRID
POINTS 2 double
94.672 99.3591 102.963
101.541 100.454 99.7395

POINT_DATA 2
SCALARS radius double
LOOKUP_TABLE default
4.8685
4.7685

SCALARS status double
LOOKUP_TABLE default
1
1

SCALARS concentration double
LOOKUP_TABLE default
38.9575
38.9575

SCALARS fibres double
LOOKUP_TABLE default
0
0

SCALARS phenot double
LOOKUP_TABLE default
7
7

SCALARS cont_pheno double
LOOKUP_TABLE default
0.5
0.5

SCALARS name double
LOOKUP_TABLE default
1
0

SCALARS interaction_phenotype double
LOOKUP_TABLE default
0
0

SCALARS vessel_interaction double
LOOKUP_TABLE default
0
0

SCALARS is_follower double
LOOKUP_TABLE default
1
1

SCALARS polarised double
LOOKUP_TABLE default
0
0

