# vtk DataFile Version 2.0
Unstructured grid legacy vtk file with point scalar data
ASCII

DATASET UNSTRUCTURED_GRID
POINTS 67 double
70.8165 110.636 92.3748
69.143 111.065 100.546
75.5132 107.786 104.898
81.5783 101.61 92.0946
79.185 102.787 110.838
80.7979 107.705 97.0724
82.9329 110.891 104.318
78.5851 113.769 110.983
87.3313 94.6203 112.892
94.4309 100.807 90.6077
89.1413 103.565 97.0359
91.5749 98.7879 106.938
85.9524 99.1909 119.525
94.1599 101.677 122.076
92.5658 111.059 77.3353
91.916 108.587 90.1277
94.7348 105.894 103.478
88.2994 111.414 97.1613
89.4685 109.404 108.292
95.0243 108.825 116.684
88.3493 116.818 103.314
93.9774 121.527 96.0661
96.576 93.1183 92.4836
103.085 89.8814 96.908
104.379 88.5392 105.571
99.3297 94.8106 120.721
102.361 101.281 83.7902
102.304 98.0136 86.8843
102.824 98.8046 94.5785
95.4731 98.2235 99.1466
102.116 102.674 102.462
99.594 95.4938 106.453
98.2636 104.145 110.324
103.228 98.1992 113.754
102.44 102.383 122.846
95.9326 113.604 84.3544
100.285 106.949 88.0325
104.631 110.808 94.777
97.6211 106.233 96.0006
100.185 112.009 102.133
95.9669 113.938 95.6014
96.3737 112.999 109.311
102.945 110.98 113.773
100.95 110.992 122.199
101.17 116.436 89.4012
96.4059 119.127 102.618
102.537 118.52 97.1659
104.287 119.363 105.045
97.5332 121.083 110.269
109.37 93.6483 109.423
106.845 103.005 80.4719
111.158 97.0012 93.9328
108.249 103.208 88.8366
106.728 95.7272 101.602
106.241 104.699 108.972
111.166 100.864 114.346
114.067 106.431 78.057
111.395 105.173 96.4127
107.619 109.465 102.311
111.18 109.204 113.823
112.976 114.161 105.152
110.565 105.822 121.31
109.342 114.041 120.406
107.439 112.098 128.353
110.333 117.235 98.9177
108.433 115.124 110.165
117.351 110.702 118.736

POINT_DATA 67
SCALARS radius double
LOOKUP_TABLE default
5.02621
5.02621
5.08931
5.07271
5.02621
5.07271
5.07271
5.08931
5.04636
5.09809
5.04636
5.09809
5.04636
5.07271
5.04636
5.09809
5.0053
5.04636
5.07271
5.07271
5.04636
4.68931
5.03728
5.07271
5.07271
5.0053
3.99809
4.09809
5.08666
5.04636
5.07271
5.09809
5.0053
5.0053
5.0053
5.04636
5.09809
5.0053
5.09809
5.02621
5.02621
5.02621
5.02621
5.02621
5.02621
4.78931
5.0053
5.0053
5.02621
5.07271
5.09809
5.08666
5.09809
5.07271
5.07271
5.0053
5.09809
5.09809
5.0053
5.02621
4.5053
5.02621
5.08931
5.08931
5.04636
4.4053
5.02621

SCALARS status double
LOOKUP_TABLE default
1
1
1
1
1
1
1
1
1
1
1
2
1
1
1
1
1
1
1
1
1
1
1
1
1
1
1
1
1
1
1
1
1
1
1
1
1
1
1
1
1
1
1
1
1
1
1
1
1
1
1
1
1
1
1
1
1
1
1
1
1
1
1
1
1
1
1

SCALARS concentration double
LOOKUP_TABLE default
38.9575
38.9575
38.9575
38.9575
38.9575
38.9575
38.9575
38.9575
38.9575
38.9575
38.9575
38.9575
38.9575
38.9575
38.9575
38.9575
38.9575
38.9575
38.9575
38.9575
38.9575
38.9575
38.9575
38.9575
38.9575
38.9575
38.9575
38.9575
38.9575
38.9575
38.9575
38.9575
38.9575
38.9575
38.9575
38.9575
38.9575
38.9575
38.9575
38.9575
38.9575
38.9575
38.9575
38.9575
38.9575
38.9575
38.9575
38.9575
38.9575
38.9575
38.9575
38.9575
38.9575
38.9575
38.9575
38.9575
38.9575
38.9575
38.9575
38.9575
38.9575
38.9575
38.9575
38.9575
38.9575
38.9575
38.9575

SCALARS fibres double
LOOKUP_TABLE default
0
0
0
0
0
0
0
0
0
0
0
0
0
0
0
0
0
0
0
0
0
0
0
0
0
0
0
0
0
0
0
0
0
0
0
0
0
0
0
0
0
0
0
0
0
0
0
0
0
0
0
0
0
0
0
0
0
0
0
0
0
0
0
0
0
0
0

SCALARS phenot double
LOOKUP_TABLE default
7
7
7
7
7
7
7
7
7
7
7
7
7
7
7
7
7
7
7
7
7
7
7
7
7
7
7
7
7
7
7
7
7
7
7
7
7
7
7
7
7
7
7
7
7
7
7
7
7
7
7
7
7
7
7
7
7
7
7
7
7
7
7
7
7
7
7

SCALARS cont_pheno double
LOOKUP_TABLE default
0.5
0.5
0.5
0.5
0.5
0.5
0.5
0.5
0.5
0.5
0.5
0.45
0.5
0.5
0.5
0.5
0.5
0.5
0.5
0.5
0.5
0.5
0.5
0.5
0.5
0.5
0.5
0.5
0.5
0.5
0.5
0.5
0.5
0.5
0.5
0.5
0.5
0.5
0.5
0.5
0.5
0.5
0.5
0.5
0.5
0.5
0.5
0.5
0.5
0.5
0.5
0.5
0.5
0.5
0.5
0.5
0.5
0.5
0.5
0.5
0.5
0.5
0.5
0.5
0.5
0.5
0.5

SCALARS name double
LOOKUP_TABLE default
55
21
54
48
26
15
60
40
44
2
11
1
35
16
62
31
29
36
52
32
63
64
3
23
59
13
66
25
0
37
20
10
4
46
28
49
6
51
7
47
57
22
14
38
24
17
58
27
33
8
34
5
61
50
39
12
41
9
43
45
65
42
53
19
56
18
30

SCALARS interaction_phenotype double
LOOKUP_TABLE default
0
0
0
0
0
0
0
0
0
0
0
0
0
0
0
0
0
0
0
0
0
0
0
0
0
0
0
0
0
0
0
0
0
0
0
0
0
0
0
0
0
0
0
0
0
0
0
0
0
0
0
0
0
0
0
0
0
0
0
0
0
0
0
0
0
0
0

SCALARS vessel_interaction double
LOOKUP_TABLE default
0
0
0
0
0
0
0
0
0
0
0
0
0
0
0
0
0
0
0
0
0
0
0
0
0
0
0
0
0
0
0
0
0
0
0
0
0
0
0
0
0
0
0
0
0
0
0
0
0
0
0
0
0
0
0
0
0
0
0
0
0
0
0
0
0
0
0

SCALARS is_follower double
LOOKUP_TABLE default
1
1
1
1
1
1
1
1
1
1
1
1
1
1
1
1
1
1
1
1
1
1
1
1
1
1
1
1
1
1
1
1
1
1
1
1
1
1
1
1
1
1
1
1
1
1
1
1
1
1
1
1
1
1
1
1
1
1
1
1
1
1
1
1
1
1
1

SCALARS polarised double
LOOKUP_TABLE default
0
0
0
0
0
0
0
0
0
0
0
0
0
0
0
0
0
0
0
0
0
0
0
0
0
0
0
0
0
0
0
0
0
0
0
0
0
0
0
0
0
0
0
0
0
0
0
0
0
0
0
0
0
0
0
0
0
0
0
0
0
0
0
0
0
0
0

