# vtk DataFile Version 2.0
Unstructured grid legacy vtk file with point scalar data
ASCII

DATASET UNSTRUCTURED_GRID
POINTS 69 double
70.9241 110.732 92.2581
69.1146 111.077 100.513
75.2298 107.772 104.963
81.5679 101.159 92.0712
78.9268 102.857 111.286
85.6019 99.3243 119.554
80.588 107.616 97.1475
82.8734 111.05 104.163
78.5418 113.439 111.146
87.0713 94.7437 112.826
94.6869 100.777 90.8213
88.9286 103.517 96.6929
91.7723 98.9967 106.543
93.9819 102.423 122.734
94.4955 99.3736 118.371
92.7371 111.163 77.1211
91.8703 108.899 89.9928
94.5554 106.09 103.249
87.9186 111.65 97.3084
89.4908 109.218 108.775
94.9193 108.872 116.827
88.2383 117.193 103.978
93.7535 121.707 95.3855
96.2835 93.0733 92.4569
103.13 89.8539 96.7722
104.593 88.5696 105.56
99.3825 94.8614 120.909
101.059 101.605 83.2534
102.242 96.7978 87.5279
102.512 98.8414 94.9624
95.3042 98.3233 99.3143
101.795 103.013 102.329
99.9204 95.8602 106.254
98.1606 103.975 110.486
102.951 97.9084 113.999
102.362 102.552 122.966
96.1056 113.583 84.0151
100.284 107.242 88.3186
104.387 110.844 94.7301
97.8292 106.093 95.8386
100.344 111.755 101.915
96.1922 113.843 95.4309
96.272 113.009 109.025
102.834 110.935 113.778
101.044 110.946 122.046
101.463 116.359 89.3298
96.3135 118.895 102.851
102.593 118.647 97.2629
104.403 120.108 104.836
97.369 121.199 110.597
102.832 115.9 106.987
109.474 93.868 109.439
107.309 103.215 80.1633
111.089 96.9061 94.0324
107.835 103.173 88.9263
106.999 95.9008 101.525
106.344 104.436 109.151
111.277 100.71 114.619
114.293 106.751 78.1695
111.23 105.22 96.3703
107.858 109.578 102.456
111.397 108.956 113.575
113.729 114.282 105.506
110.608 105.727 121.385
109.324 114.254 120.191
106.963 112.199 128.542
110.345 117.085 99.0059
108.515 115.442 110.417
117.655 110.825 118.704

POINT_DATA 69
SCALARS radius double
LOOKUP_TABLE default
5.02621
5.02621
5.08931
5.07271
5.02621
5.04636
5.07271
5.07271
5.08931
5.04636
5.09809
5.04636
5.09809
4.12621
4.12621
5.04636
5.09809
5.0053
5.04636
5.07271
5.07271
5.04636
5.08931
5.03728
5.07271
5.07271
5.0053
4.39809
4.49809
5.08666
5.04636
5.07271
5.09809
5.0053
5.0053
5.0053
5.04636
5.09809
5.0053
5.09809
5.02621
5.02621
5.02621
5.02621
5.02621
5.02621
5.08931
5.0053
3.97271
5.02621
4.07271
5.07271
5.09809
5.08666
5.09809
5.07271
5.07271
5.0053
5.09809
5.09809
5.0053
5.02621
4.9053
5.02621
5.08931
5.08931
5.04636
4.8053
5.02621

SCALARS status double
LOOKUP_TABLE default
1
1
1
1
1
1
1
1
1
1
1
1
2
1
1
1
1
1
1
1
1
1
1
1
1
1
1
1
1
1
1
1
1
1
1
1
1
1
1
1
1
1
1
1
1
1
1
1
1
1
1
1
1
1
1
1
1
1
1
1
1
1
1
1
1
1
1
1
1

SCALARS concentration double
LOOKUP_TABLE default
38.9575
38.9575
38.9575
38.9575
38.9575
38.9575
38.9575
38.9575
38.9575
38.9575
38.9575
38.9575
38.9575
38.9575
38.9575
38.9575
38.9575
38.9575
38.9575
38.9575
38.9575
38.9575
38.9575
38.9575
38.9575
38.9575
38.9575
38.9575
38.9575
38.9575
38.9575
38.9575
38.9575
38.9575
38.9575
38.9575
38.9575
38.9575
38.9575
38.9575
38.9575
38.9575
38.9575
38.9575
38.9575
38.9575
38.9575
38.9575
38.9575
38.9575
38.9575
38.9575
38.9575
38.9575
38.9575
38.9575
38.9575
38.9575
38.9575
38.9575
38.9575
38.9575
38.9575
38.9575
38.9575
38.9575
38.9575
38.9575
38.9575

SCALARS fibres double
LOOKUP_TABLE default
0
0
0
0
0
0
0
0
0
0
0
0
0
0
0
0
0
0
0
0
0
0
0
0
0
0
0
0
0
0
0
0
0
0
0
0
0
0
0
0
0
0
0
0
0
0
0
0
0
0
0
0
0
0
0
0
0
0
0
0
0
0
0
0
0
0
0
0
0

SCALARS phenot double
LOOKUP_TABLE default
7
7
7
7
7
7
7
7
7
7
7
7
7
7
7
7
7
7
7
7
7
7
7
7
7
7
7
7
7
7
7
7
7
7
7
7
7
7
7
7
7
7
7
7
7
7
7
7
7
7
7
7
7
7
7
7
7
7
7
7
7
7
7
7
7
7
7
7
7

SCALARS cont_pheno double
LOOKUP_TABLE default
0.5
0.5
0.5
0.5
0.5
0.5
0.5
0.5
0.5
0.5
0.5
0.5
0.45
0.5
0.5
0.5
0.5
0.5
0.5
0.5
0.5
0.5
0.5
0.5
0.5
0.5
0.5
0.5
0.5
0.5
0.5
0.5
0.5
0.5
0.5
0.5
0.5
0.5
0.5
0.5
0.5
0.5
0.5
0.5
0.5
0.5
0.5
0.5
0.5
0.5
0.5
0.5
0.5
0.5
0.5
0.5
0.5
0.5
0.5
0.5
0.5
0.5
0.5
0.5
0.5
0.5
0.5
0.5
0.5

SCALARS name double
LOOKUP_TABLE default
55
21
54
48
26
35
15
60
40
44
2
11
1
16
67
62
31
29
36
52
32
63
64
3
23
59
13
66
25
0
37
20
10
4
46
28
49
6
51
7
47
57
22
14
38
24
17
58
27
33
68
8
34
5
61
50
39
12
41
9
43
45
65
42
53
19
56
18
30

SCALARS interaction_phenotype double
LOOKUP_TABLE default
0
0
0
0
0
0
0
0
0
0
0
0
0
0
0
0
0
0
0
0
0
0
0
0
0
0
0
0
0
0
0
0
0
0
0
0
0
0
0
0
0
0
0
0
0
0
0
0
0
0
0
0
0
0
0
0
0
0
0
0
0
0
0
0
0
0
0
0
0

SCALARS vessel_interaction double
LOOKUP_TABLE default
0
0
0
0
0
0
0
0
0
0
0
0
0
0
0
0
0
0
0
0
0
0
0
0
0
0
0
0
0
0
0
0
0
0
0
0
0
0
0
0
0
0
0
0
0
0
0
0
0
0
0
0
0
0
0
0
0
0
0
0
0
0
0
0
0
0
0
0
0

SCALARS is_follower double
LOOKUP_TABLE default
1
1
1
1
1
1
1
1
1
1
1
1
1
1
1
1
1
1
1
1
1
1
1
1
1
1
1
1
1
1
1
1
1
1
1
1
1
1
1
1
1
1
1
1
1
1
1
1
1
1
1
1
1
1
1
1
1
1
1
1
1
1
1
1
1
1
1
1
1

SCALARS polarised double
LOOKUP_TABLE default
0
0
0
0
0
0
0
0
0
0
0
0
0
0
0
0
0
0
0
0
0
0
0
0
0
0
0
0
0
0
0
0
0
0
0
0
0
0
0
0
0
0
0
0
0
0
0
0
0
0
0
0
0
0
0
0
0
0
0
0
0
0
0
0
0
0
0
0
0

