# vtk DataFile Version 2.0
Unstructured grid legacy vtk file with point scalar data
ASCII

DATASET UNSTRUCTURED_GRID
POINTS 11 double
93.1842 101.86 97.1138
88.0545 97.1186 108.452
97.5901 94.5127 97.5636
95.2973 98.374 104.454
103.2 100.328 100.641
99.0483 104.253 112.151
102.638 97.157 108.525
95.6658 106.469 89.8641
96.8363 106.318 104.056
108.219 99.9213 93.6851
104.844 108.613 101.408

POINT_DATA 11
SCALARS radius double
LOOKUP_TABLE default
5.03728
5.03728
5.03728
5.03728
5.08666
5.09809
5.09809
5.08666
5.03728
5.02287
5.08666

SCALARS status double
LOOKUP_TABLE default
1
1
1
1
1
1
1
1
1
1
1

SCALARS concentration double
LOOKUP_TABLE default
38.9575
38.9575
38.9575
38.9575
38.9575
38.9575
38.9575
38.9575
38.9575
38.9575
38.9575

SCALARS fibres double
LOOKUP_TABLE default
0
0
0
0
0
0
0
0
0
0
0

SCALARS phenot double
LOOKUP_TABLE default
7
7
7
7
7
7
7
7
7
7
7

SCALARS cont_pheno double
LOOKUP_TABLE default
0.5
0.5
0.5
0.5
0.5
0.5
0.5
0.5
0.5
0.5
0.5

SCALARS name double
LOOKUP_TABLE default
2
1
3
10
0
4
8
6
7
5
9

SCALARS interaction_phenotype double
LOOKUP_TABLE default
0
0
0
0
0
0
0
0
0
0
0

SCALARS vessel_interaction double
LOOKUP_TABLE default
0
0
0
0
0
0
0
0
0
0
0

SCALARS is_follower double
LOOKUP_TABLE default
1
1
1
1
1
1
1
1
1
1
1

SCALARS polarised double
LOOKUP_TABLE default
0
0
0
0
0
0
0
0
0
0
0

