# vtk DataFile Version 2.0
Unstructured grid legacy vtk file with point scalar data
ASCII

DATASET UNSTRUCTURED_GRID
POINTS 31 double
74.8565 109.789 101.336
82.0047 105.748 99.7776
78.067 104.957 107.205
94.4041 100.747 94.1461
89.3091 103.538 100.62
91.1323 97.6368 109.393
98.0813 93.5656 95.6351
102.398 93.0917 102.087
102.707 100.733 97.5945
96.7405 98.7235 103.565
95.5089 102.244 101.042
98.4889 102.589 110.503
102.889 98.4865 116.142
96.9503 104.027 118.527
96.9952 108.316 89.9482
97.3555 107.667 98.409
103.068 104.993 104.466
103.793 113.891 102.99
101.447 110.462 113.889
96.8309 110.365 106.501
102.317 104.864 120.406
100.329 115.748 95.1315
98.671 118.165 103.46
109.907 98.7488 94.2485
107.343 102.358 87.0612
105.876 97.4244 108.099
105.096 109.441 97.7784
108.077 105.048 110.072
107.091 111.983 107.564
107.877 108.452 118.949
109.2 107.777 114.882

POINT_DATA 31
SCALARS radius double
LOOKUP_TABLE default
5.07271
5.0053
5.07271
5.09809
5.04636
5.03728
5.03728
5.0053
5.08666
4.09809
4.09809
5.0053
5.04636
4.1053
5.08666
5.09809
5.0053
4.29809
5.07271
5.07271
4.2053
5.07271
5.07271
5.08666
5.08666
5.0053
5.03728
5.0053
4.39809
3.97271
4.07271

SCALARS status double
LOOKUP_TABLE default
1
1
1
1
1
1
1
1
1
1
1
1
1
1
1
1
1
1
1
1
1
1
1
1
1
1
1
1
1
1
1

SCALARS concentration double
LOOKUP_TABLE default
38.9575
38.9575
38.9575
38.9575
38.9575
38.9575
38.9575
38.9575
38.9575
38.9575
38.9575
38.9575
38.9575
38.9575
38.9575
38.9575
38.9575
38.9575
38.9575
38.9575
38.9575
38.9575
38.9575
38.9575
38.9575
38.9575
38.9575
38.9575
38.9575
38.9575
38.9575

SCALARS fibres double
LOOKUP_TABLE default
0
0
0
0
0
0
0
0
0
0
0
0
0
0
0
0
0
0
0
0
0
0
0
0
0
0
0
0
0
0
0

SCALARS phenot double
LOOKUP_TABLE default
7
7
7
7
7
7
7
7
7
7
7
7
7
7
7
7
7
7
7
7
7
7
7
7
7
7
7
7
7
7
7

SCALARS cont_pheno double
LOOKUP_TABLE default
0.5
0.5
0.5
0.5
0.5
0.5
0.5
0.5
0.5
0.5
0.5
0.5
0.5
0.5
0.5
0.5
0.5
0.5
0.5
0.5
0.5
0.5
0.5
0.5
0.5
0.5
0.5
0.5
0.5
0.5
0.5

SCALARS name double
LOOKUP_TABLE default
21
15
26
2
11
1
3
23
0
10
29
4
13
16
6
7
20
27
14
22
28
24
17
5
25
8
9
12
18
19
30

SCALARS interaction_phenotype double
LOOKUP_TABLE default
0
0
0
0
0
0
0
0
0
0
0
0
0
0
0
0
0
0
0
0
0
0
0
0
0
0
0
0
0
0
0

SCALARS vessel_interaction double
LOOKUP_TABLE default
0
0
0
0
0
0
0
0
0
0
0
0
0
0
0
0
0
0
0
0
0
0
0
0
0
0
0
0
0
0
0

SCALARS is_follower double
LOOKUP_TABLE default
1
1
1
1
1
1
1
1
1
1
1
1
1
1
1
1
1
1
1
1
1
1
1
1
1
1
1
1
1
1
1

SCALARS polarised double
LOOKUP_TABLE default
0
0
0
0
0
0
0
0
0
0
0
0
0
0
0
0
0
0
0
0
0
0
0
0
0
0
0
0
0
0
0

