# vtk DataFile Version 2.0
Unstructured grid legacy vtk file with point scalar data
ASCII

DATASET UNSTRUCTURED_GRID
POINTS 31 double
74.8853 109.952 100.969
81.64 105.748 100.201
78.2306 104.886 107.576
94.3323 101.122 93.8528
88.9143 103.322 100.392
90.9 97.8313 109.768
97.773 93.1831 95.1784
102.798 92.8575 101.858
102.278 100.372 97.352
95.8892 102.679 101.718
97.1664 96.7427 104.966
98.0193 102.817 110.553
102.74 98.1867 116.354
95.5667 104.346 118.354
102.283 104.465 121.305
97.0384 108.913 89.8108
97.8142 108.854 98.0637
102.996 105.08 104.263
103.905 114.045 102.21
101.543 109.374 114.216
97.4996 110.68 106.719
100.367 115.544 94.9046
98.1415 118.872 103.479
110.081 98.4208 94.1616
107.648 102.165 87.1667
104.86 96.9079 108.364
107.88 104.04 109.862
106.092 108.402 97.1017
107.638 112.297 108.849
107.177 109.824 120.844
110.916 108.725 114.981

POINT_DATA 31
SCALARS radius double
LOOKUP_TABLE default
5.07271
5.0053
5.07271
5.09809
5.04636
5.03728
5.03728
5.0053
5.08666
4.89809
4.89809
5.0053
5.04636
4.9053
5.0053
5.08666
5.09809
5.0053
5.09809
5.07271
5.07271
5.07271
5.07271
5.08666
5.08666
5.0053
5.0053
5.03728
5.09809
4.77271
4.87271

SCALARS status double
LOOKUP_TABLE default
1
1
1
1
1
1
1
1
1
1
1
1
1
1
1
1
1
1
1
1
1
1
1
1
1
1
1
1
1
1
1

SCALARS concentration double
LOOKUP_TABLE default
38.9575
38.9575
38.9575
38.9575
38.9575
38.9575
38.9575
38.9575
38.9575
38.9575
38.9575
38.9575
38.9575
38.9575
38.9575
38.9575
38.9575
38.9575
38.9575
38.9575
38.9575
38.9575
38.9575
38.9575
38.9575
38.9575
38.9575
38.9575
38.9575
38.9575
38.9575

SCALARS fibres double
LOOKUP_TABLE default
0
0
0
0
0
0
0
0
0
0
0
0
0
0
0
0
0
0
0
0
0
0
0
0
0
0
0
0
0
0
0

SCALARS phenot double
LOOKUP_TABLE default
7
7
7
7
7
7
7
7
7
7
7
7
7
7
7
7
7
7
7
7
7
7
7
7
7
7
7
7
7
7
7

SCALARS cont_pheno double
LOOKUP_TABLE default
0.5
0.5
0.5
0.5
0.5
0.5
0.5
0.5
0.5
0.5
0.5
0.5
0.5
0.5
0.5
0.5
0.5
0.5
0.5
0.5
0.5
0.5
0.5
0.5
0.5
0.5
0.5
0.5
0.5
0.5
0.5

SCALARS name double
LOOKUP_TABLE default
21
15
26
2
11
1
3
23
0
29
10
4
13
16
28
6
7
20
27
14
22
24
17
5
25
8
12
9
18
19
30

SCALARS interaction_phenotype double
LOOKUP_TABLE default
0
0
0
0
0
0
0
0
0
0
0
0
0
0
0
0
0
0
0
0
0
0
0
0
0
0
0
0
0
0
0

SCALARS vessel_interaction double
LOOKUP_TABLE default
0
0
0
0
0
0
0
0
0
0
0
0
0
0
0
0
0
0
0
0
0
0
0
0
0
0
0
0
0
0
0

SCALARS is_follower double
LOOKUP_TABLE default
1
1
1
1
1
1
1
1
1
1
1
1
1
1
1
1
1
1
1
1
1
1
1
1
1
1
1
1
1
1
1

SCALARS polarised double
LOOKUP_TABLE default
0
0
0
0
0
0
0
0
0
0
0
0
0
0
0
0
0
0
0
0
0
0
0
0
0
0
0
0
0
0
0

