# vtk DataFile Version 2.0
Unstructured grid legacy vtk file with point scalar data
ASCII

DATASET UNSTRUCTURED_GRID
POINTS 22 double
82.2834 104.952 101.196
76.4706 107.973 102.456
89.4575 103.864 100.894
89.9874 97.125 109.814
98.7304 94.1225 97.3517
95.573 101.825 94.77
102.787 100.93 98.66
96.1597 99.3833 103.567
99.4796 103.494 110.721
104.207 97.4254 106.586
103.479 97.9945 114.86
97.7967 103.854 118.315
96.4663 107.566 88.9336
96.6573 107.739 100.932
102.499 105.448 105.008
99.5303 111.707 109.877
99.8974 115.626 102.244
108.407 100.508 92.6652
108.24 104.496 109.78
105.103 109.279 98.4153
107.141 112.278 106.071
108.728 107.635 117.87

POINT_DATA 22
SCALARS radius double
LOOKUP_TABLE default
4.4053
4.5053
5.04636
5.03728
5.03728
5.09809
5.08666
5.03728
4.8053
5.04636
5.04636
5.04636
5.08666
5.09809
4.8053
5.0053
5.0053
5.02287
5.0053
5.03728
5.03728
5.0053

SCALARS status double
LOOKUP_TABLE default
1
1
1
1
1
1
1
1
1
1
1
1
1
1
1
1
1
1
1
1
1
1

SCALARS concentration double
LOOKUP_TABLE default
38.9575
38.9575
38.9575
38.9575
38.9575
38.9575
38.9575
38.9575
38.9575
38.9575
38.9575
38.9575
38.9575
38.9575
38.9575
38.9575
38.9575
38.9575
38.9575
38.9575
38.9575
38.9575

SCALARS fibres double
LOOKUP_TABLE default
0
0
0
0
0
0
0
0
0
0
0
0
0
0
0
0
0
0
0
0
0
0

SCALARS phenot double
LOOKUP_TABLE default
7
7
7
7
7
7
7
7
7
7
7
7
7
7
7
7
7
7
7
7
7
7

SCALARS cont_pheno double
LOOKUP_TABLE default
0.5
0.5
0.5
0.5
0.5
0.5
0.5
0.5
0.5
0.5
0.5
0.5
0.5
0.5
0.5
0.5
0.5
0.5
0.5
0.5
0.5
0.5

SCALARS name double
LOOKUP_TABLE default
15
21
11
1
3
2
0
10
4
8
13
16
6
7
20
14
17
5
12
9
18
19

SCALARS interaction_phenotype double
LOOKUP_TABLE default
0
0
0
0
0
0
0
0
0
0
0
0
0
0
0
0
0
0
0
0
0
0

SCALARS vessel_interaction double
LOOKUP_TABLE default
0
0
0
0
0
0
0
0
0
0
0
0
0
0
0
0
0
0
0
0
0
0

SCALARS is_follower double
LOOKUP_TABLE default
1
1
1
1
1
1
1
1
1
1
1
1
1
1
1
1
1
1
1
1
1
1

SCALARS polarised double
LOOKUP_TABLE default
0
0
0
0
0
0
0
0
0
0
0
0
0
0
0
0
0
0
0
0
0
0

