# vtk DataFile Version 2.0
Unstructured grid legacy vtk file with point scalar data
ASCII

DATASET UNSTRUCTURED_GRID
POINTS 521 double
55.936 97.4603 111.055
54.804 108.113 97.1285
62.3276 90.925 103.677
63.7128 97.1712 91.8073
60.7914 99.7571 100.282
63.7141 96.3467 110.802
62.2089 104.549 108.222
60.3603 102.193 115.799
63.8768 104.064 122.615
62.1366 108.23 91.9738
60.6882 113.953 99.4802
57.9731 112.046 107.105
66.1053 112.586 106.094
64.4488 110.182 113.794
64.3023 114.801 79.6464
63.8089 118.55 88.0947
62.5215 119.689 105.685
74.2833 86.4077 93.9736
75.3608 92.5601 93.1534
69.7332 92.9664 96.6516
69.7186 86.7744 103.514
75.1752 95.0794 103.689
72.5234 90.6803 110.022
74.3682 88.1455 117.972
72.8666 93.7269 125.185
72.1543 96.6391 88.7537
67.2748 103.035 86.6635
67.3544 102.292 95.5084
73.9109 102.379 104.404
68.031 97.0938 103.742
75.1577 103.967 96.6734
75.2485 101.167 112.465
70.4997 96.7282 111.89
67.9251 96.8257 119.37
67.7625 102.963 114.849
75.946 102.199 126.36
73.1611 113.007 78.2862
75.9803 111.531 85.7315
71.0018 108.254 91.9259
67.0137 111.5 85.9991
66.958 105.262 102.23
72.4608 110.986 100.028
70.7268 106.931 108.842
72.7645 113.305 111.07
68.7645 110.919 121.843
73.628 107.379 116.651
68.6495 105.5 128.905
74.2788 109.315 129.55
74.9345 108.658 135.368
69.7452 120.445 76.6892
71.7891 118.421 84.9914
67.3617 114.424 94.7418
75.6031 115.025 93.1235
70.3815 121.665 92.8977
75.6921 122.939 104.054
75.6661 117.143 100.158
70.1644 120.303 109.148
76.0993 114.877 117.938
73.2048 122.642 117.167
67.6529 117.153 116.393
75.0019 114.48 125.737
75.9656 126.223 124.345
79.3061 73.6828 107.643
83.1009 83.7054 84.5154
83.174 83.9388 91.5268
79.879 76.5762 99.3941
80.1224 83.4395 102.009
79.395 83.005 96.2375
84.3028 80.6652 106.755
82.8304 94.9176 73.2751
77.2409 89.259 74.3733
84.8392 87.4928 76.7994
76.9221 94.5435 80.3515
77.9951 90.3892 87.5699
85.3704 90.8707 88.2757
81.8102 89.3857 94.379
78.3474 90.0406 100.522
85.6967 88.446 99.673
83.7899 89.0194 107.805
82.4155 90.4323 115.752
80.4639 90.0606 123.903
85.6163 104.757 62.7196
81.7525 102.236 76.6831
80.0107 99.7379 84.1537
85.1011 96.5662 80.8853
76.2506 103.68 88.3649
80.5454 97.1558 89.9965
82.7694 102.562 93.423
76.8416 96.5633 95.9685
83.8787 95.6963 96.1622
84.9978 95.7015 103.325
80.0152 100.021 100.697
79.1531 95.4297 110.404
81.0503 103.056 107.843
83.0663 101.35 114.998
83.419 98.0955 122.816
76.2346 95.8107 118.006
78.3538 102.726 119.24
78.9448 95.6453 130.573
84.0032 101.9 130.088
85.5602 113.435 62.2639
80.327 110.287 74.8211
81.2676 107.24 82.8473
80.3545 108.96 92.3604
82.8613 106.227 99.7132
81.6532 113.423 99.3338
78.2987 110.484 105.68
80.6713 109.514 113.626
79.7856 108.884 122.906
81.8724 109.523 133.711
78.3106 118.952 75.4043
85.5332 123.501 74.4811
82.8143 115.455 81.1644
79.8445 118.49 87.3767
83.7984 118.328 93.831
77.8626 122.966 95.0386
82.4525 117.823 107.232
81.0055 119.509 122.752
82.85 117.342 115.232
79.0221 118.508 130.699
85.7064 115.754 130.457
85.1472 130.901 70.2509
79.8911 124.414 81.8213
83.6776 125.791 89.6683
85.285 125.85 97.9591
77.2307 129.326 99.7039
80.1053 124.55 113.411
81.8741 126.177 105.638
84.0785 133.743 99.3897
91.5467 69.7659 99.6062
91.1165 75.9835 106.087
94.4524 80.3085 83.9418
93.9931 78.8029 92.4192
90.4535 83.7214 102.07
89.081 77.5816 98.2942
91.1658 83.5241 110.664
89.3105 77.5007 116.69
86.0281 84.2275 120.298
92.7553 80.3885 124.109
90.9288 94.1543 75.3417
93.7028 86.0199 76.4247
89.141 89.6351 81.6135
93.8116 87.8784 86.7548
90.2401 86.6742 93.5128
91.3498 93.3545 97.911
91.3301 90.9447 105.472
90.6056 91.5048 113.413
93.9335 86.6975 118.72
88.3094 92.0905 121.183
90.8311 88.4088 127.226
86.8553 93.9907 133.283
95.2491 93.3367 132.468
92.1758 101.215 59.1198
92.4762 99.871 69.7747
90.7914 101.873 78.2202
90.2748 96.0156 85.3278
86.1997 102.926 87.0195
94.41 100.537 89.3257
88.301 96.5596 91.668
88.786 102.418 95.1528
88.0335 102.681 104.469
93.3964 98.7829 101.143
86.4458 96.9962 110.054
94.045 98.4193 109.148
89.6873 98.5975 116.92
92.5645 103.403 122.275
90.8827 97.1952 126.967
93.4291 106.919 66.0919
86.1066 108.708 69.2335
94.1599 112.512 72.1164
88.8246 108.744 75.8382
92.6256 107.057 85.1451
87.4763 109.602 81.6106
86.3237 111.8 88.3305
95.1302 113.547 87.1028
87.925 110.649 95.8255
93.132 105.829 97.7176
88.3458 110.576 104.138
95.2733 105.335 103.953
88.6959 105.278 112.19
88.0917 112.538 111.24
95.0556 106.771 109.475
93.6875 110.454 117.67
86.0637 110.362 118.976
87.7695 108.492 127.472
88.9583 105.663 136.44
90.3311 118.651 66.8293
86.3554 115.913 73.649
91.345 115.867 80.076
87.6741 123.114 82.0103
88.6151 119.121 87.5878
91.4093 117.394 93.8897
87.5535 118.02 100.401
87.7535 123.821 110.108
91.1587 117.695 106.634
86.8433 123.766 119.844
90.3213 117.525 115.089
89.431 115.893 123.148
93.7976 120.957 119.214
93.3066 114.854 130.768
91.1203 122.536 127.198
92.2143 119.383 140.345
92.1459 125.788 69.615
87.2429 130.696 78.2784
94.0316 126.049 77.6689
90.1278 128.786 85.6658
92.9213 125.235 93.0339
88.2549 132.208 92.6276
91.8742 124.048 102.043
92.3137 131.206 99.5064
87.4067 131.668 106.541
94.5389 128.87 107.476
86.0121 130.37 114.76
91.925 131.266 120.701
95.2676 129.768 127.943
94.2472 124.963 134.834
92.3388 139.588 85.5253
95.2807 133.643 80.6116
90.729 139.201 96.3365
95.0997 135.682 112.473
99.6079 71.0904 85.0357
96.3298 71.3825 92.924
98.4082 73.131 102.655
97.1284 72.4964 111.013
104.748 76.2109 110.45
97.2304 67.0502 117.477
102.551 73.2292 116.986
102.005 79.0837 85.6893
102.629 77.2827 93.9707
99.0656 85.3429 92.2592
97.8851 80.8119 99.5796
98.0033 80.172 107.772
104.775 84.5439 112.2
100.868 77.5454 123.579
97.3928 80.0768 116.089
99.1667 85.4076 125.547
102.025 87.5598 74.4606
99.5535 86.4403 82.2001
96.2203 94.1229 82.3103
95.825 93.3924 91.983
102.075 91.2653 87.8066
95.7884 88.2888 99.0936
101.971 86.3643 104.234
102.499 91.5929 96.4092
98.5053 94.3071 103.657
97.6678 89.2001 110.799
104.311 93.437 111.827
101.83 89.1133 118.272
102.506 91.6532 128.756
97.4778 103.703 62.6118
98.3892 97.549 75.5829
97.6503 103.087 81.8763
101.23 97.9785 83.6451
100.978 98.2929 89.3014
104.35 103.725 91.1597
99.4562 99.5533 96.3975
101.493 101.475 104.986
103.192 103.493 112.041
96.1785 95.429 120.134
96.5105 102.864 115.457
102.654 98.5228 116.977
99.1328 99.5084 127.122
99.2927 100.32 135.199
97.6028 101.653 143.157
100.391 111.324 65.1938
101.619 105.681 58.9088
104.194 112.952 57.6353
102.557 112.75 73.302
97.6276 105.261 73.4196
97.3381 110.868 79.3152
103.196 106.509 81.8609
101.617 109.177 86.2548
97.5871 106.144 91.1256
103.258 112.325 92.0016
96.1064 112.218 95.2438
96.0013 112.332 103.527
100.446 107.062 98.4908
103.275 113.389 100.888
102.063 108.943 107.075
95.6204 112.049 111.703
101.586 109.564 114.795
101 105.254 121.613
104.499 112.868 122.039
95.6244 109.997 125.034
101.299 113.396 129.912
95.7519 106.497 131.779
103.629 107.938 135.232
103.011 120.9 55.3101
103.826 119.683 63.3504
98.2085 118.215 68.9117
102.522 116.373 83.7514
97.8898 118.696 76.8933
95.5083 121.79 84.389
98.679 119.019 91.2744
102.743 123.307 87.2927
103.31 119.608 96.99
96.3939 118.476 99.1098
97.9196 120.761 105.172
100.946 115.773 108.21
95.7441 121.957 111.809
95.5356 115.679 109.661
97.3946 116.693 123.745
99.2618 116.616 116.148
103.646 120.349 120.816
99.4557 121.454 129.197
100.709 121.107 141.827
98.4016 115.388 136.452
96.1165 124.045 63.1922
100.69 125.153 71.8739
96.8407 131.437 67.3719
101.65 127.491 80.877
101.174 126.663 93.3542
97.4749 129.536 87.3157
100.342 126.342 100.971
102.847 133.311 97.3968
101.708 126.624 108.812
97.8928 125.228 122.331
96.1337 128.646 115.232
103.695 127.859 116.624
102.167 128.395 132.654
103.041 135.112 85.4624
96.9331 134.018 93.3588
104.58 138.72 92.5529
99.379 133.499 104.315
98.7812 140.081 99.3458
100.27 139.076 108.747
102.399 137.079 116.861
100.892 135.564 128.707
103.955 144.584 108.284
108.799 74.9719 88.5841
109.015 72.5984 96.2692
104.946 68.9772 106.728
109.485 81.0137 72.1554
108.816 78.9714 81.0094
106.881 83.7318 89.6983
112.494 79.4628 93.6417
111.069 85.4916 95.2944
105.65 77.4792 102.698
105.552 83.6074 97.6886
112.051 82.6146 101.996
111.725 80.4424 109.607
111.699 82.3251 117.476
112.966 94.4181 71.8766
104.834 92.9999 80.3314
109.829 87.6311 83.0587
108.893 91.0712 90.8927
109.253 90.0677 100.147
105.291 92.3512 105.155
111.495 88.6164 107.916
110.316 90.1139 115.931
113.588 92.1174 123.479
105.883 94.4203 122.276
107.171 86.3129 123.69
110.396 89.9797 131.023
111.207 100.338 66.3984
105.629 97.9389 72.8686
112.299 101.604 74.6562
113.131 95.8182 80.8144
106.872 100.558 80.52
108.621 98.1817 87.5431
108.872 97.6607 95.2411
106.572 104.647 98.9338
106.353 97.4476 100.671
113.361 101.446 101.034
109.393 97.8099 106.366
114.326 103.517 108.729
107.816 102.686 109.945
110.373 98.2749 114.839
109.608 100.705 123.227
109.497 102.301 132.672
106.078 95.9695 134.219
105.929 101.569 140.446
105.533 105.716 68.763
108.351 113.843 67.555
114.162 107.827 69.1212
105.442 106.396 75.9313
108.927 113.316 79.6061
108.927 106.94 85.4623
112.988 106.891 79.0854
110.463 114.118 87.8421
111.78 105.13 92.9411
109.943 112.391 96.1044
109.744 108.618 103.923
109.32 109.569 111.732
107.721 105.348 118.2
111.924 111.344 119.713
106.407 107.268 127.074
113.573 109.313 130.343
111.498 107.694 138.535
105.974 114.029 140.583
108.814 122.21 69.6062
112.344 117.706 74.8967
105.866 121.398 77.1596
108.976 121.743 84.4882
108.321 120.238 92.1629
108.624 121.587 99.7691
110.401 116.33 103.801
104.905 121.052 105.331
106.181 116.333 112.61
113.535 116.417 110.102
109.021 123.807 111.877
113.27 118.325 116.466
112.301 117.844 123.186
108.99 115.452 129.269
113.487 123.072 127.07
104.987 120.029 134.553
112.478 117.522 136.383
108.808 122.304 142.209
109.201 130.294 81.2674
109.295 128.529 89.4076
107.289 127.07 97.1019
107.705 131.507 102.219
113.722 125.478 96.0412
111.781 125.435 104.669
113.654 130.7 110.516
106.46 131.803 107.845
109.535 124.586 119.998
106.139 131.941 123.14
106.632 124.352 127.484
110.142 126.48 135.083
111.659 134.127 95.5133
109.802 138.613 103.561
107.148 133.496 113.344
123.149 83.8305 92.995
118.445 82.3322 98.3622
121.027 94.2449 72.4486
115.974 91.9464 87.6235
114.637 89.0226 95.7734
121.883 92.0672 96.9022
118.744 87.8739 103.433
115.269 94.4536 100.986
120.17 87.7399 110.736
122.983 94.4767 105.572
115.885 95.2236 109.41
118.547 91.812 117.468
121.033 93.8498 125.749
120.356 103.105 74.8299
122.378 96.02 79.9406
123.517 104.501 83.6711
114.518 102.411 85.6842
119.744 98.4562 86.2166
116.585 98.614 93.5655
121.861 99.8105 99.5543
121.149 100.291 112.039
116.712 98.9352 119.525
116.776 101.964 130.744
121.88 101.27 125.729
117.984 112.036 75.0317
118.996 108.125 80.6744
116.334 109.149 87.0257
118.444 106.937 93.2842
116.604 112.158 101.296
117.616 106.003 99.1667
117.297 110.38 108.946
121.498 105.404 105.482
123.737 108.325 113.711
115.488 106.209 123.557
115.968 106.056 115.665
119.868 112.822 119.698
122.896 105.03 119.727
121.569 109.637 127.306
118.727 111.839 135.002
122.531 107.705 140.658
115.998 112.706 143.056
115.993 116.438 68.3294
114.649 121.125 80.667
117.295 115.393 83.3289
123.362 118.157 86.1601
117.991 114.647 93.0209
115.586 121.645 88.9541
114.606 118.572 97.9493
121.954 115.97 104.742
120.303 123.481 101.067
117.438 122.121 108.961
122.638 115.99 112.073
120.173 120.487 118.053
116.396 122.54 132.836
123.834 122.102 132.065
119.346 117.94 126.534
123.234 117.223 145.23
116.958 131.389 83.2185
122.174 124.373 92.7387
117.037 129.913 89.8893
118.1 130.427 95.9387
115.472 131.677 102.496
123.794 130.7 99.1744
121.035 128.94 107.498
114.469 129.99 123.584
115.476 126.035 116.31
121.695 125.284 123.862
122.898 128.346 115.428
117.059 139.35 100.954
124.321 94.3371 89.4462
128.675 87.8888 90.2915
130.196 98.0666 79.4125
124.132 102.419 91.6571
129.429 96.3297 99.9995
127.678 101.406 106.35
124.799 97.0549 119.039
129.446 110.801 72.2557
125.464 112.981 79.9147
129.812 105.937 78.8791
124.139 110.351 89.7057
130.994 107.045 87.1798
130.541 111.829 94.4126
123.883 110.209 98.8617
127.936 109.583 107.297
128.394 110.557 121.757
130.699 113.463 114.714
128.925 120.401 92.4549
129.993 114.791 86.7306
127.891 118.179 99.8946
130.05 117.635 107.644
127.804 121.894 114.555
131.703 118.52 120.811
126.643 117.014 126.643
125.481 115.42 137.175
127.547 125.09 105.317
129.589 126.598 121.42
138.399 108.967 90.607
133.608 111.972 102.353

POINT_DATA 521
SCALARS radius double
LOOKUP_TABLE default
5.00635
5.09976
5.09976
5.09976
5.09976
5.09976
5.04768
5.07354
5.04768
5.09976
5.03939
5.09976
5.09976
5.09976
5.04768
5.08931
5.03939
5.02621
4.24768
5.09976
5.08931
5.08931
5.08931
5.02621
5.02621
5.07271
5.04768
5.04768
5.00635
5.09976
5.04768
4.68931
4.68931
5.09976
5.07354
5.09976
5.02621
5.04636
5.04768
5.04768
5.04768
5.04768
5.09976
5.04768
5.04768
5.03939
5.04768
4.27354
4.27354
5.02621
5.08931
5.04768
5.02621
5.03939
5.02621
5.02621
5.08931
5.09976
5.04768
5.04768
5.00635
5.04768
5.02621
5.02621
4.38931
5.02621
4.27271
4.37271
5.07271
4.98931
5.08931
5.02621
5.02621
5.02621
5.07271
4.38931
5.08931
5.07271
5.08931
5.08931
5.0053
5.02621
5.02621
4.64768
5.08931
5.03939
4.74768
4.58931
4.34768
5.02621
5.02621
5.00635
5.02621
5.09976
5.09976
5.08931
5.03939
5.09976
5.07271
5.09976
5.02621
5.08931
5.0053
5.02621
5.07271
5.08931
5.08931
5.08931
5.03939
5.03939
5.08931
5.09976
5.08654
5.03939
5.04768
5.02621
5.08931
5.09976
5.04768
4.99976
5.09976
5.08931
5.08931
5.02621
5.04768
5.07271
5.04768
5.0053
5.03939
5.04768
5.04768
5.08931
5.09809
4.92621
5.02621
5.03939
5.03939
5.07271
5.03939
5.02621
5.0053
5.04684
5.04684
5.0053
5.02621
5.07271
5.07271
5.03939
5.08931
5.03939
5.07354
5.04768
5.02621
5.07271
5.0053
5.08931
5.0053
5.0053
5.02621
4.68931
5.09976
5.02621
5.02621
5.09976
5.07271
5.08931
5.07354
5.07271
5.02621
5.08931
4.88931
5.03719
4.88931
5.08654
5.07271
5.07271
5.07271
5.07271
4.73939
5.09976
5.02621
4.83939
5.02621
5.03939
5.07271
5.08931
5.02621
5.03939
5.02272
5.09976
5.04768
5.02687
5.04768
5.09976
5.09976
5.03939
4.89976
5.09976
4.89976
5.09976
5.09976
5.06043
5.08931
5.02621
5.04768
5.09976
5.09976
5.03939
5.04768
5.03939
5.09976
5.04768
5.03939
5.00635
5.03939
5.07354
5.07354
5.07354
5.09976
5.00635
5.00635
5.00635
5.04768
5.00635
5.03939
5.00635
5.03939
5.04768
5.04768
5.02621
5.0053
5.07271
5.08931
5.09976
5.04768
5.0053
5.04636
5.07271
5.07271
5.03939
5.08931
5.0053
5.09809
5.08931
5.07271
5.03939
5.02621
5.08931
5.08931
4.29976
5.02621
5.04636
4.39976
4.49976
5.09809
5.08931
5.08931
4.39976
5.03939
5.09976
5.02621
5.00635
5.03939
5.03939
5.03939
4.39976
5.03939
5.02621
5.02621
5.03719
4.53939
4.53939
5.0053
5.08931
5.02687
5.02687
5.07271
5.07271
5.08931
4.24768
5.09976
5.08931
5.00635
5.07354
5.00635
5.07354
5.03939
5.03939
5.08931
5.09802
5.09976
5.03719
5.02272
5.00635
5.07354
5.00635
5.02687
4.77354
4.87354
5.09976
4.24768
5.00635
5.09976
5.09976
5.04768
5.08983
5.06043
5.02621
5.09802
5.02621
5.07354
5.04768
5.00635
5.09976
5.00635
5.04768
5.03939
5.09976
5.09976
5.07354
5.08931
5.09976
5.03939
5.00635
5.08931
4.63939
5.03939
5.04768
4.73939
5.03939
5.03939
5.04768
5.09976
5.04768
5.09976
5.04768
4.2053
5.09976
5.09976
5.04768
5.09976
5.08931
5.04636
5.09809
5.09809
5.08931
4.93939
4.93939
5.02621
5.03939
5.03939
5.08931
5.07271
5.07271
5.07271
5.04636
5.02621
5.04636
5.0053
5.03939
5.02621
5.08931
4.83939
5.03939
4.93939
5.02621
4.39976
5.08931
5.03939
5.00635
5.07271
5.04768
5.02621
5.07271
5.04636
5.0053
5.09976
5.09976
4.74768
5.08931
5.03939
5.08931
5.08931
5.08931
5.03939
5.03939
5.03939
5.00635
5.00635
5.04768
5.03939
4.94768
5.04768
5.03939
5.02621
4.73939
5.03939
5.00635
5.08931
5.08931
5.02621
5.08931
5.03939
5.03939
4.74768
5.00635
5.00635
5.02687
5.09976
5.08931
4.83939
5.08931
5.09976
5.02621
5.02621
4.63939
5.09976
5.04768
5.02621
5.07354
5.03939
4.73939
4.63939
5.09976
5.09976
5.02621
5.04636
4.2053
5.03728
5.03939
5.02621
5.09976
5.03939
5.02621
5.09976
5.07271
5.0053
5.08931
5.07271
5.0053
5.0053
5.04636
5.02621
5.03939
5.03939
5.03939
5.03939
5.08931
4.74768
5.0053
4.83939
5.08931
4.83939
5.08931
5.00635
5.00635
5.03939
5.09976
5.09976
5.00635
5.08931
5.00635
5.07354
5.07354
5.09976
4.94768
5.09976
4.88931
5.08931
5.08931
5.03939
5.08931
5.03939
5.08931
5.08931
5.04768
4.84768
5.04768
5.04768
5.07354
5.03939
5.03939
4.64768
4.64768
5.02621
5.03939
5.08931
5.02621
5.07271
5.04768
5.02621
4.73939
5.04636
5.04636
5.08931
5.04636
5.04636
5.00635
5.03939
5.07271
5.02621
5.07271
5.08931
5.08931
5.03939
5.08931
5.09976
5.09976
5.02621
5.08931
4.98931
5.03939
5.03939
5.09976
5.04768
5.04768
5.07354
5.08931
5.09976
5.02621
5.09976

SCALARS status double
LOOKUP_TABLE default
1
1
1
1
1
1
1
1
1
1
1
1
1
1
1
1
1
1
1
1
1
1
1
1
1
1
1
1
1
1
1
1
1
1
1
1
1
1
1
1
1
1
1
1
1
1
1
1
1
1
1
1
1
1
1
1
1
1
1
1
1
1
1
1
1
1
1
1
1
1
1
1
1
1
1
1
1
2
1
1
1
1
1
1
1
1
1
1
1
1
1
1
1
1
1
1
1
1
1
1
1
1
1
1
1
1
1
1
1
1
1
1
1
1
1
1
1
1
1
1
1
1
1
1
1
1
1
1
1
1
1
1
1
1
1
1
1
1
1
1
1
1
1
1
1
2
2
1
1
1
1
1
1
1
1
1
1
1
1
1
1
1
1
1
2
1
1
1
1
1
1
1
1
1
1
1
1
1
1
1
1
1
1
1
1
1
1
1
1
1
1
1
1
1
1
1
1
1
1
1
1
1
1
1
1
1
1
1
1
1
1
1
1
1
1
1
1
1
1
1
1
1
1
1
1
1
1
1
1
1
1
1
1
1
1
1
1
1
1
1
1
1
1
1
1
1
1
1
1
1
1
1
1
1
1
1
1
1
1
1
1
1
1
1
1
1
1
1
1
1
1
1
1
1
1
1
1
1
1
1
1
1
1
1
1
1
1
1
1
1
1
1
1
1
1
1
1
1
1
1
1
1
1
1
1
1
1
1
1
1
1
1
1
1
1
1
1
1
1
1
1
1
1
1
1
1
1
1
1
1
1
1
1
1
1
1
2
1
1
1
1
1
1
1
1
1
1
1
1
1
1
1
1
1
1
1
1
1
1
1
1
2
1
1
1
1
1
1
1
1
1
1
1
1
1
1
1
1
1
1
1
1
1
1
1
1
1
1
1
1
1
1
1
1
1
1
1
1
1
1
1
1
1
1
1
1
1
1
1
1
1
1
1
1
1
1
1
1
1
1
1
1
1
1
1
1
2
2
1
1
1
1
1
1
1
1
1
1
1
1
1
1
1
1
1
1
1
1
1
1
1
1
1
1
1
1
1
1
1
1
1
1
1
1
1
1
1
1
1
1
1
1
1
1
1
1
1
1
1
1
1
1
1
1
1
1
1
1
1
1
1
1
1
1
1
1
1
1
1
1
1
1
1
1
1
1
1
1
1
1
1
1
1
1
1
1
1
1
1
1
1

SCALARS concentration double
LOOKUP_TABLE default
32.9087
32.8446
32.612
33.1036
32.612
33.3082
33.4291
32.9087
33.7799
33.7484
34.1697
33.6073
34.6969
34.2388
34.6675
34.9717
34.9691
33.6242
35.1523
33.4226
33.4007
34.2988
33.4007
33.2933
33.7775
34.0619
33.9291
34.0179
34.5934
33.4226
35.2716
34.4396
34.4396
33.763
32.9087
35.0262
35.8849
36.1604
34.9775
34.6679
34.0179
35.5668
34.5579
35.6107
35.2434
35.1659
34.4642
36.2372
36.2372
35.9913
36.087
35.1284
36.4676
36.5419
37.2323
37.2323
36.3462
36.4633
37.4014
35.614
36.2372
37.8086
32.6677
34.6133
33.8212
32.6677
33.5425
33.5425
33.7131
35.283
35.283
34.6133
34.4307
34.6178
35.3925
33.8212
34.2988
35.1583
34.4775
34.8039
34.0945
37.5341
36.2442
35.1523
36.2442
35.5935
35.1523
37.4365
35.1523
36.1152
35.5986
34.5934
34.6823
36.0164
36.3177
35.3843
34.9349
36.3177
34.7987
36.6013
38.8967
36.5934
36.6396
37.0272
36.6034
37.7837
36.5478
36.9426
36.5744
36.2315
37.825
40.064
38.1566
37.6362
39.0753
38.0067
38.2405
37.6042
38.6285
37.7576
37.7576
40.7995
38.7636
39.3271
39.5876
38.3639
38.3741
39.0765
40.8188
33.3008
33.3008
35.4429
34.9807
34.599
34.599
34.7732
33.8597
34.4168
34.8215
36.7575
35.8026
35.9579
35.9579
35.2979
37.0313
35.8167
35.8043
35.5206
35.9351
35.9302
36.0156
36.8798
38.1787
38.2274
37.7228
36.2442
36.9163
37.7354
36.1152
37.4365
37.2596
37.0313
35.9879
37.4623
36.8449
38.3058
37.0377
38.2274
38.3723
40.146
38.296
38.7324
38.296
38.2776
40.2483
38.5959
38.9141
38.8131
39.299
37.6953
38.7014
39.299
39.3836
38.293
38.3769
37.9846
40.7102
39.5195
40.7879
40.064
39.7146
40.7547
39.913
40.0398
40.4975
39.463
40.4884
40.3126
40.4884
40.2498
40.3126
42.9066
40.7995
40.8431
42.388
41.0277
41.7236
41.8676
41.7451
42.2485
41.4825
41.7451
40.3598
42.7765
41.7492
41.9392
43.2149
43.2149
43.0479
43.8495
34.6565
33.9599
34.4676
33.9491
35.4756
33.3165
35.4756
36.1431
35.3363
36.6232
35.4338
35.376
36.9129
34.7904
34.7969
36.5977
37.1802
35.9579
37.5345
37.1317
38.5531
36.2814
36.8827
38.2
37.6926
36.6662
38.4966
37.1987
38.7293
40.3874
38.5629
39.5722
39.2384
39.2384
41.2847
39.0458
39.6444
40.5431
37.4496
38.7963
38.9808
38.3341
38.7939
38.586
41.7328
40.3874
42.3643
42.7663
39.8285
40.2683
41.785
41.785
39.5569
42.0834
40.304
41.3101
41.1825
41.1825
41.747
40.4526
41.0457
40.1736
42.6491
39.2406
41.732
39.2406
41.1049
43.7593
44.0138
43.283
43.1785
41.9193
41.9934
42.9642
44.829
43.6546
41.3101
42.5268
42.5268
42.5817
40.4526
40.9379
42.1787
44.5532
42.6419
42.9066
42.9066
42.8052
43.283
42.8052
44.829
44.5983
43.4442
43.7681
45.2936
44.4628
42.9592
42.5817
45.4984
44.965
46.2564
44.6944
47.9628
44.3314
45.3713
46.3309
46.485
46.0199
46.3309
35.9034
35.3751
34.2978
36.6524
36.1431
36.6598
37.6385
38.9593
35.7926
37.0249
37.6385
37.2074
37.4511
40.2111
38.4181
38.1972
38.5531
38.4054
38.4054
38.6659
38.6238
39.5658
38.7293
37.3734
38.9402
41.3116
39.6165
42.2169
40.4175
40.4175
41.1545
40.2893
41.501
40.0684
42.7144
40.0684
42.5767
40.5431
40.6155
40.9194
41.4476
38.9946
40.5187
41.3912
44.1035
44.355
41.3081
43.8449
43.1233
43.1233
44.6221
43.4068
43.7353
42.8861
42.9376
42.6467
44.0846
41.7362
44.3641
43.1949
42.9435
45.9417
46.1478
44.9141
46.6379
45.6609
46.6873
45.0458
42.5268
44.0036
45.8003
46.5256
45.8003
46.4007
44.3155
47.9434
44.216
46.1373
45.3668
48.0134
47.6318
46.6873
47.5796
49.3926
47.0942
49.9724
47.5796
44.5532
47.1246
46.4635
47.1435
49.0239
50.3133
47.5796
38.9298
38.9298
41.8441
40.0674
38.9593
41.4547
39.7846
40.7591
39.7877
42.2061
41.1093
40.444
41.353
44.4867
43.3021
45.217
42.6486
42.6486
42.1713
43.9551
43.3936
42.044
42.7744
42.7744
46.7408
43.1233
45.1886
45.7158
44.8947
45.7158
45.5866
45.242
46.677
44.0846
43.5281
47.4153
44.774
46.0107
45.5381
45.78
45.3755
46.1855
46.1478
46.564
48.6928
47.6903
47.6903
46.7743
48.1232
50.0568
48.5983
49.1201
49.8063
47.9434
49.604
49.604
48.4518
51.4603
51.5543
49.3926
49.3926
49.9634
53.7612
52.5093
50.04
47.5112
49.8063
52.166
50.3133
42.0291
40.7149
43.3021
44.719
43.8488
45.28
42.6892
49.0021
48.6928
47.1955
47.8878
47.8878
48.1922
45.7158
48.4386
48.0071
50.3197
51.551
48.6928
51.4488
51.2943
52.0098
49.8923
49.8923
48.2957
52.5093
52.0098
49.5929
48.4386

SCALARS fibres double
LOOKUP_TABLE default
0
0
0
0
0
0
0
0
0
0
0
0
0
0
0
0
0
0
0
0
0
0
0
0
0
0
0
0
0
0
0
0
0
0
0
0
0
0
0
0
0
0
0
0
0
0
0
0
0
0
0
0
0
0
0
0
0
0
0
0
0
0
0
0
0
0
0
0
0
0
0
0
0
0
0
0
0
0
0
0
0
0
0
0
0
0
0
0
0
0
0
0
0
0
0
0
0
0
0
0
0
0
0
0
0
0
0
0
0
0
0
0
0
0
0
0
0
0
0
0
0
0
0
0
0
0
0
0
0
0
0
0
0
0
0
0
0
0
0
0
0
0
0
0
0
0
0
0
0
0
0
0
0
0
0
0
0
0
0
0
0
0
0
0
0
0
0
0
0
0
0
0
0
0
0
0
0
0
0
0
0
0
0
0
0
0
0
0
0
0
0
0
0
0
0
0
0
0
0
0
0
0
0
0
0
0
0
0
0
0
0
0
0
0
0
0
0
0
0
0
0
0
0
0
0
0
0
0
0
0
0
0
0
0
0
0
0
0
0
0
0
0
0
0
0
0
0
0
0
0
0
0
0
0
0
0
0
0
0
0
0
0
0
0
0
0
0
0
0
0
0
0
0
0
0
0
0
0
0
0
0
0
0
0
0
0
0
0
0
0
0
0
0
0
0
0
0
0
0
0
0
0
0
0
0
0
0
0
0
0
0
0
0
0
0
0
0
0
0
0
0
0
0
0
0
0
0
0
0
0
0
0
0
0
0
0
0
0
0
0
0
0
0
0
0
0
0
0
0
0
0
0
0
0
0
0
0
0
0
0
0
0
0
0
0
0
0
0
0
0
0
0
0
0
0
0
0
0
0
0
0
0
0
0
0
0
0
0
0
0
0
0
0
0
0
0
0
0
0
0
0
0
0
0
0
0
0
0
0
0
0
0
0
0
0
0
0
0
0
0
0
0
0
0
0
0
0
0
0
0
0
0
0
0
0
0
0
0
0
0
0
0
0
0
0
0
0
0
0
0
0
0
0
0
0
0
0
0
0
0
0
0
0
0
0
0
0
0
0
0
0
0
0
0
0
0
0
0
0
0
0
0
0
0
0
0
0
0
0
0
0
0
0
0
0
0
0
0
0
0
0
0
0
0
0
0
0
0
0
0
0
0
0
0
0
0
0
0
0
0
0

SCALARS phenot double
LOOKUP_TABLE default
7
7
7
7
7
7
7
7
7
7
7
7
7
7
7
7
7
7
7
7
7
7
7
7
7
7
7
7
7
7
7
7
7
7
7
7
7
7
7
7
7
7
7
7
7
7
7
7
7
7
7
7
7
7
7
7
7
7
7
7
7
7
7
7
7
7
7
7
7
7
7
7
7
7
7
7
7
7
7
7
7
7
7
7
7
7
7
7
7
7
7
7
7
7
7
7
7
7
7
7
7
7
7
7
7
7
7
7
7
7
7
7
7
7
7
7
7
7
7
7
7
7
7
7
7
7
7
7
7
7
7
7
7
7
7
7
7
7
7
7
7
7
7
7
7
7
7
7
7
7
7
7
7
7
7
7
7
7
7
7
7
7
7
7
7
7
7
7
7
7
7
7
7
7
7
7
7
7
7
7
7
7
7
7
7
7
7
7
7
7
7
7
7
7
7
7
7
7
7
7
7
7
7
7
7
7
7
7
7
7
7
7
7
7
7
7
7
7
7
7
7
7
7
7
7
7
7
7
7
7
7
7
7
7
7
7
7
7
7
7
7
7
7
7
7
7
7
7
7
7
7
7
7
7
7
7
7
7
7
7
7
7
7
7
7
7
7
7
7
7
7
7
7
7
7
7
7
7
7
7
7
7
7
7
7
7
7
7
7
7
7
7
7
7
7
7
7
7
7
7
7
7
7
7
7
7
7
7
7
7
7
7
7
7
7
7
7
7
7
7
7
7
7
7
7
7
7
7
7
7
7
7
7
7
7
7
7
7
7
7
7
7
7
7
7
7
7
7
7
7
7
7
7
7
7
7
7
7
7
7
7
7
7
7
7
7
7
7
7
7
7
7
7
7
7
7
7
7
7
7
7
7
7
7
7
7
7
7
7
7
7
7
7
7
7
7
7
7
7
7
7
7
7
7
7
7
7
7
7
7
7
7
7
7
7
7
7
7
7
7
7
7
7
7
7
7
7
7
7
7
7
7
7
7
7
7
7
7
7
7
7
7
7
7
7
7
7
7
7
7
7
7
7
7
7
7
7
7
7
7
7
7
7
7
7
7
7
7
7
7
7
7
7
7
7
7
7
7
7
7
7
7
7
7
7
7
7
7
7
7
7
7
7
7
7
7
7
7
7
7
7
7
7
7
7
7
7
7
7
7
7
7
7
7
7
7
7
7
7
7
7

SCALARS cont_pheno double
LOOKUP_TABLE default
0.5
0.5
0.5
0.5
0.5
0.5
0.5
0.5
0.5
0.5
0.5
0.5
0.5
0.5
0.5
0.5
0.5
0.5
0.5
0.5
0.5
0.5
0.5
0.5
0.5
0.5
0.5
0.5
0.5
0.5
0.5
0.5
0.5
0.5
0.5
0.5
0.5
0.5
0.5
0.5
0.5
0.5
0.5
0.5
0.5
0.5
0.5
0.5
0.5
0.5
0.5
0.5
0.5
0.5
0.5
0.5
0.5
0.5
0.5
0.5
0.5
0.5
0.5
0.5
0.5
0.5
0.5
0.5
0.5
0.5
0.5
0.5
0.5
0.5
0.5
0.5
0.5
0.45
0.5
0.5
0.5
0.5
0.5
0.5
0.5
0.5
0.5
0.5
0.5
0.5
0.5
0.5
0.5
0.5
0.5
0.5
0.5
0.5
0.5
0.5
0.5
0.5
0.5
0.5
0.5
0.5
0.5
0.5
0.5
0.5
0.5
0.5
0.5
0.5
0.5
0.5
0.5
0.5
0.5
0.5
0.5
0.5
0.5
0.5
0.5
0.5
0.5
0.5
0.5
0.5
0.5
0.5
0.5
0.5
0.5
0.5
0.5
0.5
0.5
0.5
0.5
0.5
0.5
0.5
0.5
0.45
0.45
0.5
0.5
0.5
0.5
0.5
0.5
0.5
0.5
0.5
0.5
0.5
0.5
0.5
0.5
0.5
0.5
0.5
0.45
0.5
0.5
0.5
0.5
0.5
0.5
0.5
0.5
0.5
0.5
0.5
0.5
0.5
0.5
0.5
0.5
0.5
0.5
0.5
0.5
0.5
0.5
0.5
0.5
0.5
0.5
0.5
0.5
0.5
0.5
0.5
0.5
0.5
0.5
0.5
0.5
0.5
0.5
0.5
0.5
0.5
0.5
0.5
0.5
0.5
0.5
0.5
0.5
0.5
0.5
0.5
0.5
0.5
0.5
0.5
0.5
0.5
0.5
0.5
0.5
0.5
0.5
0.5
0.5
0.5
0.5
0.5
0.5
0.5
0.5
0.5
0.5
0.5
0.5
0.5
0.5
0.5
0.5
0.5
0.5
0.5
0.5
0.5
0.5
0.5
0.5
0.5
0.5
0.5
0.5
0.5
0.5
0.5
0.5
0.5
0.5
0.5
0.5
0.5
0.5
0.5
0.5
0.5
0.5
0.5
0.5
0.5
0.5
0.5
0.5
0.5
0.5
0.5
0.5
0.5
0.5
0.5
0.5
0.5
0.5
0.5
0.5
0.5
0.5
0.5
0.5
0.5
0.5
0.5
0.5
0.5
0.5
0.5
0.5
0.5
0.5
0.5
0.5
0.5
0.5
0.5
0.5
0.5
0.5
0.5
0.5
0.5
0.5
0.5
0.5
0.5
0.5
0.5
0.5
0.5
0.5
0.5
0.5
0.5
0.5
0.5
0.5
0.5
0.5
0.5
0.5
0.5
0.5
0.5
0.5
0.5
0.45
0.5
0.5
0.5
0.5
0.5
0.5
0.5
0.5
0.5
0.5
0.5
0.5
0.5
0.5
0.5
0.5
0.5
0.5
0.5
0.5
0.5
0.5
0.5
0.5
0.45
0.5
0.5
0.5
0.5
0.5
0.5
0.5
0.5
0.5
0.5
0.5
0.5
0.5
0.5
0.5
0.5
0.5
0.5
0.5
0.5
0.5
0.5
0.5
0.5
0.5
0.5
0.5
0.5
0.5
0.5
0.5
0.5
0.5
0.5
0.5
0.5
0.5
0.5
0.5
0.5
0.5
0.5
0.55
0.5
0.5
0.5
0.5
0.5
0.5
0.5
0.5
0.5
0.5
0.5
0.5
0.5
0.5
0.5
0.5
0.5
0.5
0.5
0.5
0.5
0.45
0.45
0.5
0.5
0.5
0.5
0.5
0.5
0.5
0.5
0.5
0.5
0.5
0.5
0.5
0.5
0.5
0.5
0.5
0.5
0.5
0.5
0.5
0.5
0.5
0.5
0.5
0.5
0.5
0.5
0.5
0.5
0.5
0.5
0.5
0.5
0.5
0.5
0.5
0.5
0.5
0.5
0.5
0.5
0.5
0.5
0.5
0.5
0.5
0.55
0.55
0.5
0.5
0.5
0.5
0.5
0.5
0.5
0.5
0.5
0.5
0.5
0.5
0.55
0.5
0.5
0.5
0.5
0.5
0.5
0.5
0.5
0.5
0.5
0.5
0.5
0.5
0.5
0.5
0.5
0.5
0.5
0.5
0.5
0.5
0.5
0.5
0.5
0.5
0.5
0.5
0.5
0.5
0.5
0.5

SCALARS name double
LOOKUP_TABLE default
365
347
444
264
91
54
279
430
132
219
21
180
285
222
386
99
261
11
518
218
476
485
152
44
291
48
393
469
201
431
352
275
503
289
472
197
169
31
55
310
240
388
314
337
293
26
419
473
517
410
188
109
60
15
302
490
250
398
76
40
407
273
465
445
248
97
1
514
330
212
484
235
342
196
402
513
392
300
159
370
86
70
447
504
122
74
460
505
355
488
136
449
417
236
52
35
383
486
175
100
375
198
71
204
29
332
200
118
138
339
344
182
163
214
394
36
371
141
424
297
487
481
89
317
283
276
237
96
167
333
440
23
3
37
491
234
372
120
379
359
78
477
328
94
478
165
69
168
423
190
348
324
307
432
263
483
397
7
93
282
154
308
224
241
306
67
399
73
353
278
251
389
493
384
149
231
211
318
499
177
63
341
144
319
32
16
62
408
404
437
362
390
356
225
115
22
323
207
494
38
461
479
199
156
135
114
85
64
380
17
246
457
166
381
33
230
452
253
245
116
322
395
183
228
258
403
466
433
242
170
87
194
277
274
340
13
192
446
2
220
454
229
10
205
139
124
361
119
441
515
315
325
511
106
145
147
4
158
133
178
39
243
88
387
160
349
103
121
400
208
512
305
142
259
256
442
113
427
47
420
252
140
329
438
262
350
128
418
284
428
24
150
57
367
453
143
357
495
148
95
519
373
334
335
146
265
448
49
377
470
303
226
320
368
421
409
216
458
257
295
79
134
92
298
254
351
191
345
506
292
104
363
378
217
125
434
520
268
238
338
84
59
75
61
25
232
414
496
8
312
153
189
46
227
34
66
107
336
360
157
269
260
497
376
20
43
516
206
80
382
28
19
301
244
41
6
77
467
366
117
327
51
422
210
110
462
213
185
186
181
101
287
249
127
209
500
215
439
14
480
426
162
396
53
502
105
255
391
90
280
58
459
299
68
309
509
482
281
364
171
415
239
27
195
474
288
321
123
129
202
50
369
98
374
111
12
176
151
82
471
5
0
286
266
81
42
489
223
508
9
443
346
501
172
313
164
161
130
45
331
108
411
296
233
425
498
326
450
173
436
354
343
187
83
193
468
247
416
463
413
56
221
464
510
102
271
429
18
304
131
311
507
155
385
455
184
72
126
294
405
203
272
316
435
406
267
270
412
179
112
492
290
401
30
475
174
137
65
456
358
451

SCALARS interaction_phenotype double
LOOKUP_TABLE default
0
0
0
0
0
0
0
0
0
0
0
0
0
0
0
0
0
0
0
0
0
0
0
0
0
0
0
0
0
0
0
0
0
0
0
0
0
0
0
0
0
0
0
0
0
0
0
0
0
0
0
0
0
0
0
0
0
0
0
0
0
0
0
0
0
0
0
0
0
0
0
0
0
0
0
0
0
0
0
0
0
0
0
0
0
0
0
0
0
0
0
0
0
0
0
0
0
0
0
0
0
0
0
0
0
0
0
0
0
0
0
0
0
0
0
0
0
0
0
0
0
0
0
0
0
0
0
0
0
0
0
0
0
0
0
0
0
0
0
0
0
0
0
0
0
0
0
0
0
0
0
0
0
0
0
0
0
0
0
0
0
0
0
0
0
0
0
0
0
0
0
0
0
0
0
0
0
0
0
0
0
0
0
0
0
0
0
0
0
0
0
0
0
0
0
0
0
0
0
0
0
0
0
0
0
0
0
0
0
0
0
0
0
0
0
0
0
0
0
0
0
0
0
0
0
0
0
0
0
0
0
0
0
0
0
0
0
0
0
0
0
0
0
0
0
0
0
0
0
0
0
0
0
0
0
0
0
0
0
0
0
0
0
0
0
0
0
0
0
0
0
0
0
0
0
0
0
0
0
0
0
0
0
0
0
0
0
0
0
0
0
0
0
0
0
0
0
0
0
0
0
0
0
0
0
0
0
0
0
0
0
0
0
0
0
0
0
0
0
0
0
0
0
0
0
0
0
0
0
0
0
0
0
0
0
0
0
0
0
0
0
0
0
0
0
0
0
0
0
0
0
0
0
0
0
0
0
0
0
0
0
0
0
0
0
0
0
0
0
0
0
0
0
0
0
0
0
0
0
0
0
0
0
0
0
0
0
0
0
0
0
0
0
0
0
0
0
0
0
0
0
0
0
0
0
0
0
0
0
0
0
0
0
0
0
0
0
0
0
0
0
0
0
0
0
0
0
0
0
0
0
0
0
0
0
0
0
0
0
0
0
0
0
0
0
0
0
0
0
0
0
0
0
0
0
0
0
0
0
0
0
0
0
0
0
0
0
0
0
0
0
0
0
0
0
0
0
0
0
0
0
0
0
0
0
0
0
0
0
0
0
0
0
0
0
0
0
0
0
0
0
0
0
0
0
0
0
0
0
0
0
0
0
0
0
0
0
0
0
0
0

SCALARS vessel_interaction double
LOOKUP_TABLE default
0
0
0
0
0
0
0
0
0
0
0
0
0
0
0
0
0
0
0
0
0
0
0
0
0
0
0
0
0
0
0
0
0
0
0
0
0
0
0
0
0
0
0
0
0
0
0
0
0
0
0
0
0
0
0
0
0
0
0
0
0
0
0
0
0
0
0
0
0
0
0
0
0
0
0
0
0
0
0
0
0
0
0
0
0
0
0
0
0
0
0
0
0
0
0
0
0
0
0
0
0
0
0
0
0
0
0
0
0
0
0
0
0
0
0
0
0
0
0
0
0
0
0
0
0
0
0
0
0
0
0
0
0
0
0
0
0
0
0
0
0
0
0
0
0
0
0
0
0
0
0
0
0
0
0
0
0
0
0
0
0
0
0
0
0
0
0
0
0
0
0
0
0
0
0
0
0
0
0
0
0
0
0
0
0
0
0
0
0
0
0
0
0
0
0
0
0
0
0
0
0
0
0
0
0
0
0
0
0
0
0
0
0
0
0
0
0
0
0
0
0
0
0
0
0
0
0
0
0
0
0
0
0
0
0
0
0
0
0
0
0
0
0
0
0
0
0
0
0
0
0
0
0
0
0
0
0
0
0
0
0
0
0
0
0
0
0
0
0
0
0
0
0
0
0
0
0
0
0
0
0
0
0
0
0
0
0
0
0
0
0
0
0
0
0