# vtk DataFile Version 2.0
Unstructured grid legacy vtk file with point scalar data
ASCII

DATASET UNSTRUCTURED_GRID
POINTS 169 double
65.0895 113.081 102.071
65.5227 114.549 93.4925
67.5915 101.298 102.769
72.1415 109.287 91.8002
72.2643 108.315 100.639
69.7677 106.535 112.135
85.7053 92.3145 102.437
84.5465 93.7992 109.829
81.4673 93.5578 115.478
82.6915 91.5716 123.353
77.9766 99.8882 90.9085
83.0959 97.755 96.3785
84.9392 101.646 103.69
76.5479 104.193 106.247
79.7627 97.2169 106.45
85.6128 102.037 111.964
77.5427 103.375 114.728
82.6683 99.7173 120.279
85.1506 110.26 89.0991
80.3721 111.208 103.403
82.555 106.308 96.2688
77.2285 111.346 111.278
85.5915 110.501 109.678
83.7737 113.573 117.466
84.4907 114.959 82.4198
84.8335 114.795 96.6507
76.438 115.086 96.9836
80.8619 119.455 112.558
83.8689 123.242 105.717
94.0222 85.1909 94.8512
90.9694 93.1334 95.7933
93.8734 91.1125 103.718
88.0726 87.7757 109.044
91.2778 95.2494 106.724
94.7487 91.7916 109.959
88.9812 93.9664 118.562
88.3821 98.1569 89.3321
89.7171 101.705 96.737
92.4031 100.337 103.574
90.7008 96.3947 111.109
91.8755 100.251 116.838
90.4425 100.9 124.625
91.0965 103.181 132.77
90.6261 110.424 68.3011
88.6912 112.534 75.9166
90.3162 108.004 82.1389
92.0982 106.148 90.6722
92.3871 112.096 86.8415
87.8156 108.608 102.094
93.3953 109.399 97.1566
92.7867 107.897 113.043
87.6854 106.305 118.855
92.5488 113.283 119.071
89.1429 120.511 78.6739
88.8702 118.009 88.9983
92.2837 118.797 97.1085
94.9378 121.578 104.45
88.2931 116.283 103.995
89.5866 117.536 113.592
89.9148 118.867 109.156
94.72 124.292 91.5886
93.3996 126.487 95.7264
101.942 83.5706 101.987
103.275 85.4062 109.972
99.6558 93.7635 85.1661
101.326 86.2569 89.0714
101.413 89.4674 96.5732
102.591 92.1807 104.695
98.7792 91.4199 111.663
100.118 92.4842 122.93
104.383 89.91 116.586
100.732 100.77 79.7977
95.4962 101.475 85.9156
99.0739 98.1766 92.3234
104.322 99.9295 87.7546
98.1265 95.8006 99.347
103.36 101.828 102.861
97.2209 102.943 97.7548
98.0846 97.9454 107.464
96.5065 102.172 112.721
100.827 97.4981 116.565
97.9419 103.436 121.381
99.1566 102.251 129.708
103.258 113.245 66.0465
95.3972 106.956 75.3747
97.7362 111.074 68.7201
103.305 109.285 76.5106
102.046 108.049 84.1356
95.4205 114.243 91.7835
99.8985 107.205 91.5249
101.612 108.569 99.3582
96.1564 113.929 102.287
104.018 109.904 106.683
96.7793 106.453 105.721
101.861 106.589 114.911
98.7664 113.95 124.571
104.304 107.968 124.609
96.2179 114.918 83.5662
96.3237 116.703 77.13
103.275 116.025 83.425
97.9178 122.439 84.3085
103.378 121.322 90.6538
100.971 114.641 95.4925
104.655 120.647 98.4788
96.7386 114.512 110.063
102.672 117.263 104.904
104.592 114.529 113.233
103.489 122.645 110.39
97.7547 119.846 116.408
102.886 121.547 126.517
99.1332 126.636 99.122
103.955 129.307 104.988
96.5842 127.012 110.938
106.86 94.9537 79.0425
107.85 91.7681 87.0444
108.829 86.8878 94.0281
109.755 87.1234 103.004
110.164 91.8073 109.646
108.3 102.93 78.2848
108.804 103.939 84.7371
107.284 95.4503 94.651
112.619 99.0388 88.882
105.608 103.594 95.0655
109.854 96.2808 102.712
113.039 102.29 96.9546
105.54 99.2888 110.027
113.479 100.21 108.864
106.557 101.874 120.351
113.228 96.2486 122.528
113.885 102.736 117.493
109.369 96.4323 115.829
113.733 102.886 125.649
106.886 98.656 127.84
109.702 105.034 71.3636
109.722 111.079 82.2759
111.922 106.81 90.4864
106.982 112.949 90.2477
108.285 112.979 98.909
112.804 107.753 103.801
109.228 107.484 111.759
111.377 108.245 121.876
105.4 114.227 130.553
108.146 106.048 131.82
107.258 116.589 76.5201
110.635 119.137 85.2325
111.499 119.584 94.1179
109.916 122.835 104.195
109.743 115.027 105.567
112.1 114.986 111.444
110.043 120.723 114.872
106.789 115.822 121.669
106.294 126.458 85.0946
107.557 127.519 96.7762
119.441 94.6691 89.8248
115.636 94.7484 97.2067
119.087 98.2272 82.6993
119.225 101.915 102.355
117.347 95.3899 114.447
116.824 108.314 75.5435
115.866 105.555 82.9258
119.737 107.268 108.022
115.919 106.176 112.464
116.791 112.58 115.917
118.28 111.072 124.055
114.424 111.572 131.68
116.039 114.615 99.7801
118.351 114.919 107.569
114.57 118.587 121.249
122.782 117.22 120.472

POINT_DATA 169
SCALARS radius double
LOOKUP_TABLE default
5.08931
5.08931
5.03939
5.02621
5.08931
5.08931
5.0053
4.62621
4.52621
5.0053
5.07271
5.0053
5.07271
5.03939
5.0053
5.08931
5.08931
5.0053
5.04636
5.07271
5.02621
5.03939
5.08931
5.08931
5.0053
5.04636
5.08931
5.03939
5.0053
5.09809
5.0053
5.0053
5.0053
4.0053
4.02621
5.07271
5.04636
5.07271
5.03939
4.1053
4.68931
5.08931
5.08931
5.07271
5.0053
5.04636
5.0053
4.32272
5.0053
5.0053
5.02621
5.08931
5.07271
5.07271
5.03939
5.03939
5.03939
5.0053
4.08931
4.08931
4.03939
4.13939
5.02621
5.02621
5.09809
5.02621
5.04636
5.09809
4.12621
5.0053
5.07271
5.04636
5.04636
5.08931
5.09809
5.04636
5.08931
5.08931
5.03939
4.68931
5.03939
5.08931
5.08931
4.52621
5.0053
4.62621
5.0053
5.09809
5.06831
5.0053
5.0053
5.03939
5.08931
5.02621
5.08931
5.08931
5.08931
4.42272
4.97271
5.03939
5.09976
5.07271
5.09976
5.08931
5.08931
5.08931
5.02621
5.07271
5.08931
5.09976
5.03939
5.07271
5.08931
5.04636
5.09809
5.08931
5.08931
5.02621
4.82621
4.82621
5.09809
5.09809
5.09809
5.07271
5.09809
5.07271
5.08931
5.03939
5.07271
5.03939
5.07271
4.58931
5.0053
5.07271
5.02621
5.04636
5.02621
5.07271
5.0053
5.09976
4.58931
5.09976
5.09976
5.03939
5.03939
5.07271
5.07271
4.52621
4.52621
5.0053
5.08931
5.09976
5.02621
5.09809
5.03728
5.07271
5.04636
5.08931
5.09809
5.07271
4.44768
4.44768
5.03939
5.08931
5.09976
5.07271
5.0053
5.03939
5.08931

SCALARS status double
LOOKUP_TABLE default
1
1
1
1
1
1
1
1
1
1
1
1
1
1
1
1
1
1
1
1
1
1
1
1
1
1
1
1
1
1
1
1
1
2
1
1
1
1
1
2
1
1
1
1
1
1
1
1
1
1
1
1
1
1
1
1
1
1
1
1
1
1
1
1
1
1
1
1
1
1
1
1
1
1
1
1
1
1
1
1
1
1
1
1
1
1
1
1
1
1
1
1
1
1
1
1
1
1
1
1
1
1
1
1
1
1
1
1
1
1
1
1
1
1
1
1
1
1
1
1
1
1
1
1
1
1
1
1
1
1
1
1
1
1
1
1
1
1
1
1
1
1
1
1
1
1
1
1
1
1
1
1
1
1
1
1
1
1
1
1
1
1
1
1
1
1
1
1
1

SCALARS concentration double
LOOKUP_TABLE default
34.4128
34.86
33.6655
35.1842
35.0611
34.7652
35.6299
35.0071
35.0071
34.7393
35.0223
36.1108
37.2165
35.4016
35.6299
37.6381
35.3189
35.8637
37.9921
36.9403
36.4153
36.4044
38.0035
38.0035
38.3969
38.2926
36.6135
38.2658
39.0578
35.5803
36.3559
36.5692
35.1196
36.6892
38.1319
35.9857
36.5237
37.5849
38.2641
36.6892
37.8005
37.5292
37.9769
39.3081
38.7479
38.7088
38.9275
41.2466
38.09
38.9275
39.2791
37.4803
39.2266
40.7712
40.0877
40.4274
41.7013
39.5437
40.0073
40.0073
42.2639
42.2639
36.3726
36.7162
37.9313
36.8527
37.319
38.1804
38.1319
37.5493
38.1336
39.1766
38.4807
38.5913
40.4254
37.4989
39.6258
38.5913
38.2641
37.8005
38.8638
38.9067
38.9213
41.7097
39.4678
41.7097
41.4161
40.8589
41.2466
40.834
40.834
40.3223
41.5773
39.2791
40.1952
41.0738
41.4952
41.2466
40.7712
42.8912
43.53
44.128
41.2466
43.3481
41.2339
43.3481
42.7336
44.0719
42.5431
43.1466
43.6386
45.6046
42.9547
39.391
38.7939
37.889
37.9308
39.348
41.4361
41.4361
39.3469
40.9289
41.6302
39.9137
41.6302
40.2067
41.7636
40.3782
40.1002
42.0702
40.1002
42.2831
39.973
42.1442
43.5179
43.2416
43.255
43.5434
43.3296
42.5379
42.2831
43.1466
42.393
44.2816
46.1285
46.3949
46.6918
44.8147
44.8147
45.7648
43.6875
46.2952
46.3146
40.9289
41.0433
43.2328
43.081
41.2407
44.655
43.2328
44.0709
44.0709
45.4864
45.3167
44.3397
46.4606
46.8938
46.3666
48.8627

SCALARS fibres double
LOOKUP_TABLE default
0
0
0
0
0
0
0
0
0
0
0
0
0
0
0
0
0
0
0
0
0
0
0
0
0
0
0
0
0
0
0
0
0
0
0
0
0
0
0
0
0
0
0
0
0
0
0
0
0
0
0
0
0
0
0
0
0
0
0
0
0
0
0
0
0
0
0
0
0
0
0
0
0
0
0
0
0
0
0
0
0
0
0
0
0
0
0
0
0
0
0
0
0
0
0
0
0
0
0
0
0
0
0
0
0
0
0
0
0
0
0
0
0
0
0
0
0
0
0
0
0
0
0
0
0
0
0
0
0
0
0
0
0
0
0
0
0
0
0
0
0
0
0
0
0
0
0
0
0
0
0
0
0
0
0
0
0
0
0
0
0
0
0
0
0
0
0
0
0

SCALARS phenot double
LOOKUP_TABLE default
7
7
7
7
7
7
7
7
7
7
7
7
7
7
7
7
7
7
7
7
7
7
7
7
7
7
7
7
7
7
7
7
7
7
7
7
7
7
7
7
7
7
7
7
7
7
7
7
7
7
7
7
7
7
7
7
7
7
7
7
7
7
7
7
7
7
7
7
7
7
7
7
7
7
7
7
7
7
7
7
7
7
7
7
7
7
7
7
7
7
7
7
7
7
7
7
7
7
7
7
7
7
7
7
7
7
7
7
7
7
7
7
7
7
7
7
7
7
7
7
7
7
7
7
7
7
7
7
7
7
7
7
7
7
7
7
7
7
7
7
7
7
7
7
7
7
7
7
7
7
7
7
7
7
7
7
7
7
7
7
7
7
7
7
7
7
7
7
7

SCALARS cont_pheno double
LOOKUP_TABLE default
0.5
0.5
0.5
0.5
0.5
0.5
0.5
0.5
0.5
0.5
0.5
0.5
0.5
0.5
0.5
0.5
0.5
0.5
0.5
0.5
0.5
0.5
0.5
0.5
0.5
0.5
0.5
0.5
0.5
0.5
0.5
0.5
0.5
0.45
0.5
0.5
0.5
0.5
0.5
0.45
0.5
0.5
0.5
0.5
0.5
0.5
0.5
0.5
0.5
0.5
0.5
0.5
0.5
0.5
0.5
0.5
0.5
0.5
0.5
0.5
0.5
0.5
0.5
0.5
0.5
0.5
0.5
0.5
0.5
0.5
0.5
0.5
0.5
0.5
0.5
0.5
0.5
0.5
0.5
0.5
0.5
0.5
0.5
0.5
0.5
0.5
0.5
0.5
0.5
0.5
0.5
0.5
0.5
0.5
0.5
0.5
0.5
0.5
0.5
0.5
0.5
0.5
0.5
0.5
0.5
0.5
0.5
0.5
0.5
0.5
0.5
0.5
0.5
0.5
0.5
0.5
0.5
0.5
0.5
0.5
0.5
0.5
0.5
0.5
0.5
0.5
0.5
0.5
0.5
0.5
0.5
0.5
0.5
0.5
0.5
0.5
0.5
0.5
0.5
0.5
0.5
0.5
0.5
0.5
0.5
0.5
0.5
0.5
0.5
0.5
0.5
0.5
0.5
0.5
0.5
0.5
0.5
0.5
0.5
0.5
0.5
0.5
0.5
0.5
0.5
0.5
0.5
0.55
0.5

SCALARS name double
LOOKUP_TABLE default
21
99
91
55
109
132
1
159
44
86
48
11
136
54
152
52
26
35
31
60
74
40
118
141
89
36
15
76
96
3
94
37
97
165
168
120
122
93
154
69
67
100
16
70
62
71
7
163
29
149
144
138
32
156
114
85
17
63
22
166
64
167
104
59
78
23
87
10
119
13
46
66
2
106
61
139
20
147
124
158
133
140
88
103
73
160
121
6
57
142
113
115
47
4
110
38
128
150
49
24
135
79
143
58
95
148
14
68
33
146
134
27
116
75
25
125
84
8
107
157
123
5
145
50
0
39
98
80
12
81
153
42
28
34
77
9
117
51
43
130
161
105
19
101
127
56
102
83
162
18
53
90
92
155
129
151
72
111
41
82
126
164
45
108
137
112
65
131
30

SCALARS interaction_phenotype double
LOOKUP_TABLE default
0
0
0
0
0
0
0
0
0
0
0
0
0
0
0
0
0
0
0
0
0
0
0
0
0
0
0
0
0
0
0
0
0
0
0
0
0
0
0
0
0
0
0
0
0
0
0
0
0
0
0
0
0
0
0
0
0
0
0
0
0
0
0
0
0
0
0
0
0
0
0
0
0
0
0
0
0
0
0
0
0
0
0
0
0
0
0
0
0
0
0
0
0
0
0
0
0
0
0
0
0
0
0
0
0
0
0
0
0
0
0
0
0
0
0
0
0
0
0
0
0
0
0
0
0
0
0
0
0
0
0
0
0
0
0
0
0
0
0
0
0
0
0
0
0
0
0
0
0
0
0
0
0
0
0
0
0
0
0
0
0
0
0
0
0
0
0
0
0

SCALARS vessel_interaction double
LOOKUP_TABLE default
0
0
0
0
0
0
0
0
0
0
0
0
0
0
0
0
0
0
0
0
0
0
0
0
0
0
0
0
0
0
0
0
0
0
0
0
0
0
0
0
0
0
0
0
0
0
0
0
0
0
0
0
0
0
0
0
0
0
0
0
0
0
0
0
0
0
0
0
0
0
0
0
0
0
0
0
0
0
0
0
0
0
0
0
0
0
0
0
0
0
0
0
0
0
0
0
0
0
0
0
0
0
0
0
0
0
0
0
0
0
0
0
0
0
0
0
0
0
0
0
0
0
0
0
0
0
0
0
0
0
0
0
0
0
0
0
0
0
0
0
0
0
0
0
0
0
0
0
0
0
0
0
0
0
0
0
0
0
0
0
0
0
0
0
0
0
0
0
0

SCALARS is_follower double
LOOKUP_TABLE default
1
1
1
1
1
1
1
1
1
1
1
1
1
1
1
1
1
1
1
1
1
1
1
1
1
1
1
1
1
1
1
1
1
1
1
1
1
1
1
1
1
1
1
1
1
1
1
1
1
1
1
1
1
1
1
1
1
1
1
1
1
1
1
1
1
1
1
1
1
1
1
1
1
1
1
1
1
1
1
1
1
1
1
1
1
1
1
1
1
1
1
1
1
1
1
1
1
1
1
1
1
1
1
1
1
1
1
1
1
1
1
1
1
1
1
1
1
1
1
1
1
1
1
1
1
1
1
1
1
1
1
1
1
1
1
1
1
1
1
1
1
1
1
1
1
1
1
1
1
1
1
1
1
1
1
1
1
1
1
1
1
1
1
1
1
1
1
1
1

SCALARS polarised double
LOOKUP_TABLE default
0
0
0
0
0
0
0
0
0
0
0
0
0
0
0
0
0
0
0
0
0
0
0
0
0
0
0
0
0
0
0
0
0
0
0
0
0
0
0
0
0
0
0
0
0
0
0
0
0
0
0
0
0
0
0
0
0
0
0
0
0
0
0
0
0
0
0
0
0
0
0
0
0
0
0
0
0
0
0
0
0
0
0
0
0
0
0
0
0
0
0
0
0
0
0
0
0
0
0
0
0
0
0
0
0
0
0
0
0
0
0
0
0
0
0
0
0
0
0
0
0
0
0
0
0
0
0
0
0
0
0
0
0
0
0
0
0
0
0
0
0
0
0
0
0
0
0
0
0
0
0
0
0
0
0
0
0
0
0
0
0
0
0
0
0
0
0
0
0

