# vtk DataFile Version 2.0
Unstructured grid legacy vtk file with point scalar data
ASCII

DATASET UNSTRUCTURED_GRID
POINTS 273 double
64.9258 98.2413 103.538
65.2476 109.012 94.1998
63.4701 113.657 99.9247
64.069 106.835 105.095
64.9533 117.37 92.6574
66.4069 117.265 105.468
74.5381 98.7423 90.2915
69.7251 102.407 94.2233
71.6313 97.3067 99.5711
68.0545 103.947 99.8109
71.5211 102.73 106.646
75.4328 104.515 114.811
75.7278 99.3169 121.958
73.7229 108.049 93.2071
71.7826 113.899 87.4987
71.173 110.102 101.309
67.8623 107.735 112.255
71.9249 113.725 108.333
75.029 112.646 115.321
69.3687 107.231 120.355
75.1535 114.998 79.2579
72.371 115.807 95.7701
84.4621 83.0328 106.438
81.1824 88.7954 93.6694
81.4609 89.7893 101.935
83.0207 91.735 110.587
78.1917 92.5793 117.347
81.5663 91.0728 125.054
82.7762 96.0722 89.5736
80.3725 103.802 93.481
78.5308 95.7735 96.5186
83.1397 98.4655 101.541
76.4107 103.907 100.043
76.5172 95.3396 105.959
79.7928 103.455 107.741
83.9904 102.197 114.602
84.3866 97.4916 120.928
80.8125 99.0105 128.435
82.3172 111.307 80.8339
79.5856 110.006 88.1751
80.1873 111.692 96.7796
84.7386 106.58 101.303
82.588 110.447 112.017
78.2798 110.995 105.107
83.127 107.069 120.606
82.1667 119.432 83.0925
78.6271 117.94 90.9364
84.5928 114.472 103.643
84.017 119.858 96.6996
84.479 118.684 110.03
78.2903 120.483 114.845
81.2493 114.882 120.327
83.7232 124.781 103.653
94.223 84.2974 93.7731
91.6865 85.3159 101.945
86.0002 92.1465 82.88
94.8082 93.1249 82.4489
88.3274 90.5086 96.2804
89.1684 93.0029 103.958
89.7906 87.5576 110.182
94.6869 88.0682 116.426
86.1713 89.3597 118.173
92.2507 93.5301 122.097
89.6282 98.8522 78.2981
90.283 98.1384 86.8602
93.2182 104.618 90.1061
93.831 96.2935 94.5618
87.3568 100.753 94.7828
91.2775 100.437 100.891
89.7986 95.6075 114.306
86.2206 99.3434 108.078
93.479 98.978 107.564
91.0484 101.84 119.557
86.7894 104.044 127.046
93.5995 99.7642 126.898
89.3186 108.235 66.1797
91.8371 114.189 71.2281
94.5745 105.136 81.449
88.0085 105.74 82.634
94.6437 110.982 84.2464
89.5292 110.743 77.3883
87.2131 113.601 86.9949
93.8499 112.544 91.7744
86.532 108.595 92.9442
92.7675 107.225 98.312
89.0863 113.76 98.338
94.6425 112.724 104.475
90.1576 106.958 108.786
91.7021 109.326 122.99
94.7708 109.206 115.64
91.2167 105.261 134.276
88.6766 121.189 73.5479
90.2863 117.506 80.7786
87.6529 121.44 89.2658
94.8775 118.377 87.0833
93.3744 120.486 95.7107
90.8583 120.052 104.61
90.0562 123.296 113.083
88.5759 114.982 115.987
95.0515 115.749 120.906
94.6728 123.529 119.335
89.2198 125.155 81.4175
93.1646 127.758 91.3118
89.4394 128.193 98.1383
90.5054 128.475 106.109
94.0699 135.015 98.27
98.8057 82.8009 86.4538
99.4296 84.0856 101.298
103.58 80.0695 95.3409
104.421 79.9949 100.522
101.539 77.543 105.882
99.4791 77.6056 114.205
97.2884 84.5023 109.063
103.864 82.3239 110.711
102.259 92.4053 78.2386
98.2383 90.5707 89.8297
97.3089 90.8818 98.4113
102.853 90.295 105.179
102.73 89.2774 113.787
96.2256 92.3642 109.595
99.1546 88.9055 122.837
104.635 94.8212 122.907
102.4 100.704 76.4427
96.4402 100.083 82.7731
104.399 98.5654 83.731
98.4479 98.8378 89.1069
98.6477 96.5815 102.916
99.1535 101.93 96.7819
95.6346 102.19 113.484
103.083 103.948 112.25
103.461 96.659 110.398
98.356 95.6568 117.533
99.1106 103.634 121.156
99.1062 102.52 131.03
97.7579 110.802 68.2201
95.9613 106.296 74.8317
103.808 108.558 75.9919
101.381 106.529 82.7106
97.3775 113.648 77.0871
100.831 106.752 90.7484
101.582 113.285 90.5013
102.867 108.549 99.601
97.2987 113.205 97.481
97.6958 104.997 104.776
101.327 111.146 106.879
101.617 110.916 113.74
102.039 113.425 124.044
101.859 109.752 132.209
103.895 114.777 62.5506
97.3162 120.111 71.9005
102.207 114.644 83.2395
103.638 121.912 84.1146
100.427 119.674 92.4394
101.929 117.242 99.3915
99.9418 119.41 106.1
96.2029 116.897 112.333
101.906 118.279 118.568
98.1928 116.014 127.881
103.009 122.931 125.397
97.5159 119.393 133.194
101.386 120.665 137.595
97.8745 125.199 78.7358
103.991 126.125 90.7563
97.2708 125.18 86.2852
96.7923 124.763 102.039
99.5972 129.202 96.3052
103.62 130.58 107.081
97.105 127.09 110.442
102.564 132.758 114.327
101.11 125.456 116.948
104.604 125.298 132.746
99.7633 134.782 102.981
108.75 74.2021 97.1394
106.882 80.1674 84.4373
108.889 84.1408 105.058
109.713 83.8407 113.73
108.565 90.8258 84.4682
105.62 85.8412 90.391
111.778 92.0591 93.5078
105.275 94.6196 90.222
105.105 93.9046 99.8022
106.596 86.8923 97.9042
110.353 90.7594 109.83
107.104 86.9958 120.957
110.475 93.7518 117.573
110.029 93.864 129.519
109.33 103.625 69.9841
109.841 95.891 78.2401
109.942 104.37 78.6293
112.501 97.9111 87.0146
107.297 103.187 94.7132
108.265 104.737 87.0451
105.08 101.177 102.917
112.198 96.0277 102.542
106.304 97.3449 95.8756
111.053 98.8348 110.907
107.42 102.017 119.349
106.291 101.055 127.748
105.587 102.695 136.279
105.924 110.923 69.1883
109.072 111.396 82.2325
108.357 112.534 89.363
114.245 108.316 91.3533
108.333 112.964 96.5482
110.997 107.242 99.0069
110.649 106.514 113.571
108.77 107.338 106.038
106.196 110.611 118.566
113.271 108.375 121.928
105.961 108.162 124.95
110.235 107.474 132.062
113.351 114.079 128.069
106.6 110.778 139.063
107.138 116.492 75.9018
110.891 118.965 85.4044
108.484 119.139 93.6397
107.067 115.422 103.432
113.222 119.49 99.9599
105.295 116.914 111.904
112.431 119.45 108.8
112.341 114.586 115.074
108.941 122.514 116.309
108.695 116.761 122.704
105.035 117.094 130.716
114.226 121.966 127.387
111.891 118.766 134.627
108.426 128 83.2913
112.108 125.657 90.5998
107.46 131.784 94.5382
105.371 124.06 99.4278
111.575 126.937 104.787
105.324 124.403 109.871
108.419 133.829 101.957
114.597 85.1412 97.382
119.941 95.2294 90.1232
119.041 92.622 98.1586
116.311 88.4792 104.868
117.85 94.2222 113.576
116.097 94.4026 123.703
119.149 97.8634 81.98
115.197 99.9044 94.9255
122.432 100.256 100.194
115.649 103.419 102.225
119.599 98.7751 107.054
116.232 103.347 109.144
115.234 100.789 118.391
114.528 101.892 127.294
116.544 108.476 70.8302
115.408 111.796 78.1167
116.176 105.644 83.9122
120.872 105.148 77.137
122.786 109.102 79.4211
121.135 111.17 87.1674
121.513 105.155 93.6692
114.568 112.293 104.397
117.023 109.348 97.4382
122.151 107.009 105.124
119.874 106.671 113.934
118.966 114.326 111.513
120.426 112.359 107.201
119.984 112.765 118.616
120.044 108.584 126.36
119.144 112.692 133.708
117.264 112.946 141.596
116.604 116.78 91.4974
118.314 123.469 93.8692
119.813 114.442 98.6687
120.279 119.091 104.568
115.89 119.837 119.471
123.473 121.576 118.009
123.554 116.543 125.036
119.719 125.579 99.3238
126.549 115.031 113.241

POINT_DATA 273
SCALARS radius double
LOOKUP_TABLE default
5.03939
5.03939
4.53939
5.03939
5.08931
4.63939
5.07271
4.39976
5.03939
4.39976
5.03939
5.03939
5.03939
5.03939
5.08931
5.03939
5.09976
5.08931
5.03939
5.09976
5.07271
5.03939
5.0053
5.02621
5.0053
5.02621
5.02621
5.0053
5.07271
5.08931
5.02621
5.02621
5.09976
5.0053
5.09976
5.08931
5.07271
5.07271
5.08931
5.04636
5.02621
5.07271
5.08931
5.08931
5.08931
5.02621
5.03939
5.0053
5.0053
5.09976
5.09976
5.08931
5.0053
5.09809
5.07271
5.07271
5.04636
5.0053
5.0053
5.08931
5.08931
5.07271
5.03939
5.07271
5.0053
5.0053
5.03939
5.07271
5.09976
5.0053
5.02621
5.09976
5.08931
5.09976
5.09976
5.07271
5.07271
4.4053
5.04636
5.08654
5.07271
5.02272
5.07271
5.07271
5.07271
5.0053
5.03939
5.09976
5.07271
5.02621
5.08931
5.02621
5.08931
5.03939
5.06831
5.03939
5.03939
5.03939
5.08931
5.03939
4.83939
5.02621
5.03939
5.03939
5.09976
5.09976
5.08931
5.0053
4.19976
4.29976
5.03939
5.03939
5.07271
4.68931
5.04636
5.02621
5.0053
5.09809
5.02621
5.03939
5.0053
5.02621
5.04636
4.5053
5.09809
5.03939
5.0053
5.08931
5.09976
5.03939
5.07271
5.03939
5.08931
5.08931
5.02621
5.0053
5.07271
5.09809
5.08654
5.0053
4.68931
5.0053
4.80635
5.02621
5.08931
5.03939
4.49976
5.03939
5.02621
5.07271
5.09976
5.09976
5.04768
4.90635
5.03939
5.08931
5.08931
4.59976
5.04768
4.27354
4.37354
5.04768
5.02621
5.04768
5.03939
5.09976
5.02621
5.09976
5.03939
4.83939
5.00635
4.92621
5.03939
5.08931
5.03939
4.78931
5.09809
5.09976
5.09809
5.02621
4.32621
5.09976
5.02621
5.07271
5.08931
5.07271
5.07271
5.04636
5.02621
5.09809
5.09809
5.02621
5.08931
5.07271
4.32621
5.08931
5.03939
5.07271
5.04768
5.07271
5.08931
4.78931
5.0053
4.82621
4.82621
5.09976
5.02621
5.03939
5.08931
5.03939
5.04768
5.04768
5.04768
5.03939
5.03939
5.02621
5.03939
5.08931
5.08931
5.08931
5.02621
5.0053
5.08931
4.90635
5.09976
5.00635
5.09976
5.08931
5.08931
5.08931
5.07271
5.07271
5.08931
5.03939
5.09809
5.03728
5.03939
5.08931
5.07271
5.07271
5.04636
5.04636
5.07271
4.33939
4.43939
5.03939
5.08931
5.04636
5.08931
5.07271
4.0053
4.1053
5.0053
5.04636
5.02621
4.42621
5.04768
5.04768
4.18931
4.18931
5.03939
5.08931
5.00635
5.00635
5.02621
4.23939
4.42621
5.07271
5.09976
5.03939
5.03939
4.23939
5.02621

SCALARS status double
LOOKUP_TABLE default
1
1
1
1
1
1
1
1
1
1
1
1
1
1
1
1
1
1
1
1
1
1
1
1
1
1
1
1
1
1
1
1
1
1
1
1
1
1
1
1
1
1
1
1
1
1
1
1
1
1
1
1
1
1
1
1
1
1
2
1
1
1
1
1
1
1
1
1
1
2
1
1
1
1
1
1
1
1
1
1
1
1
1
1
1
1
1
1
1
1
1
1
1
1
1
1
1
1
1
1
1
1
1
1
1
1
1
1
1
1
1
1
1
1
1
1
1
1
1
1
1
1
1
1
1
1
1
1
1
1
1
1
1
1
1
1
1
1
1
1
1
1
1
1
1
1
1
1
1
1
1
1
1
1
1
1
1
1
1
1
1
1
1
1
1
1
1
1
1
1
1
1
1
1
1
1
1
1
1
1
1
1
1
1
1
1
1
1
1
1
1
1
1
1
1
1
1
1
1
1
1
1
1
1
1
1
1
1
1
1
1
1
1
1
1
1
1
1
1
1
1
1
1
1
1
1
1
1
1
1
1
1
1
1
1
1
1
1
1
1
1
1
1
1
1
1
1
1
1
1
1
1
1
1
1
1
1
1
1
1
1
1
1
1
1
1
1
1
1
1
1
1
1

SCALARS concentration double
LOOKUP_TABLE default
33.6655
35.1842
34.4128
34.7652
34.86
34.4128
35.0223
35.0611
36.4153
35.0611
35.4016
35.3189
35.3189
35.1842
35.1842
35.0611
34.7652
36.9403
36.4044
34.7652
38.3969
36.6135
35.1196
36.1108
35.6299
35.0071
35.0071
34.7393
36.1108
36.4153
36.1108
37.2165
36.4153
35.6299
36.4153
37.6381
35.8637
35.8637
38.3969
37.9921
36.9403
38.09
38.0035
36.9403
37.4803
38.3969
36.6135
39.5437
38.2926
38.2658
38.2658
38.0035
39.0578
35.5803
36.5692
36.5237
37.9313
36.3559
36.6892
38.1319
38.1319
35.9857
37.5292
36.5237
36.5237
38.9275
38.5913
37.5849
38.2641
36.6892
37.2165
37.8005
37.8005
37.5292
37.5292
39.3081
38.7479
38.4807
38.7088
41.2466
38.7479
41.2466
38.9275
38.09
38.9275
38.2926
40.3223
38.2641
39.2266
39.2791
37.9769
40.7712
38.3969
40.0877
41.2466
40.4274
40.0073
40.0073
40.0073
41.0738
42.5431
40.7712
42.2639
42.2639
42.9547
43.6386
36.8527
37.319
36.3726
36.3726
36.3726
36.3726
36.5692
36.7162
37.9313
37.319
37.4989
38.1804
38.1319
38.2641
37.5493
40.1002
39.1766
38.4807
40.4254
38.5913
37.4989
38.5913
37.8005
37.8005
40.2067
38.8638
38.9067
38.9213
41.7097
39.4678
41.4161
40.8589
41.2466
40.834
43.255
40.834
41.2466
39.2791
41.5773
40.1952
41.0738
41.4952
41.7097
40.7712
42.8912
42.8912
41.2466
41.2466
43.3481
41.2339
42.7336
41.0738
43.1466
43.1466
43.1466
43.53
44.128
43.53
41.7013
43.6386
45.6046
42.9547
42.9547
42.5431
43.1466
45.6046
36.3726
36.8527
37.9308
36.7162
38.7939
37.889
39.3469
37.319
37.319
37.889
39.348
38.1336
40.1002
39.973
42.1442
39.391
41.4361
40.9289
41.6302
41.4361
39.6258
39.9137
37.319
40.1002
40.3782
39.973
42.393
41.4161
43.5179
43.255
43.2416
43.5434
43.5434
42.5379
43.3296
40.1952
42.2831
41.4952
42.393
44.3397
43.1466
44.2816
46.1285
44.128
43.3481
44.8147
42.7336
44.8147
44.8147
45.7648
43.6875
43.1466
46.3666
43.1466
46.2952
46.3949
46.3146
43.3481
46.6918
44.0719
46.3146
37.889
40.9289
41.0433
37.9308
41.2407
40.1002
43.2328
41.6302
43.081
43.3296
41.7636
41.7636
42.0702
42.2831
44.655
43.5179
43.2328
44.655
44.655
43.2416
41.6302
43.3296
46.4606
44.0709
44.0709
46.8938
46.8938
45.4864
45.3167
44.3397
44.3397
46.3949
46.3949
46.4606
46.8938
46.3666
48.8627
48.8627
46.3949
46.8938

SCALARS fibres double
LOOKUP_TABLE default
0
0
0
0
0
0
0
0
0
0
0
0
0
0
0
0
0
0
0
0
0
0
0
0
0
0
0
0
0
0
0
0
0
0
0
0
0
0
0
0
0
0
0
0
0
0
0
0
0
0
0
0
0
0
0
0
0
0
0
0
0
0
0
0
0
0
0
0
0
0
0
0
0
0
0
0
0
0
0
0
0
0
0
0
0
0
0
0
0
0
0
0
0
0
0
0
0
0
0
0
0
0
0
0
0
0
0
0
0
0
0
0
0
0
0
0
0
0
0
0
0
0
0
0
0
0
0
0
0
0
0
0
0
0
0
0
0
0
0
0
0
0
0
0
0
0
0
0
0
0
0
0
0
0
0
0
0
0
0
0
0
0
0
0
0
0
0
0
0
0
0
0
0
0
0
0
0
0
0
0
0
0
0
0
0
0
0
0
0
0
0
0
0
0
0
0
0
0
0
0
0
0
0
0
0
0
0
0
0
0
0
0
0
0
0
0
0
0
0
0
0
0
0
0
0
0
0
0
0
0
0
0
0
0
0
0
0
0
0
0
0
0
0
0
0
0
0
0
0
0
0
0
0
0
0
0
0
0
0
0
0
0
0
0
0
0
0
0
0
0
0
0
0

SCALARS phenot double
LOOKUP_TABLE default
7
7
7
7
7
7
7
7
7
7
7
7
7
7
7
7
7
7
7
7
7
7
7
7
7
7
7
7
7
7
7
7
7
7
7
7
7
7
7
7
7
7
7
7
7
7
7
7
7
7
7
7
7
7
7
7
7
7
7
7
7
7
7
7
7
7
7
7
7
7
7
7
7
7
7
7
7
7
7
7
7
7
7
7
7
7
7
7
7
7
7
7
7
7
7
7
7
7
7
7
7
7
7
7
7
7
7
7
7
7
7
7
7
7
7
7
7
7
7
7
7
7
7
7
7
7
7
7
7
7
7
7
7
7
7
7
7
7
7
7
7
7
7
7
7
7
7
7
7
7
7
7
7
7
7
7
7
7
7
7
7
7
7
7
7
7
7
7
7
7
7
7
7
7
7
7
7
7
7
7
7
7
7
7
7
7
7
7
7
7
7
7
7
7
7
7
7
7
7
7
7
7
7
7
7
7
7
7
7
7
7
7
7
7
7
7
7
7
7
7
7
7
7
7
7
7
7
7
7
7
7
7
7
7
7
7
7
7
7
7
7
7
7
7
7
7
7
7
7
7
7
7
7
7
7
7
7
7
7
7
7
7
7
7
7
7
7
7
7
7
7
7
7

SCALARS cont_pheno double
LOOKUP_TABLE default
0.5
0.5
0.5
0.5
0.5
0.5
0.5
0.5
0.5
0.5
0.5
0.5
0.5
0.5
0.5
0.5
0.5
0.5
0.5
0.5
0.5
0.5
0.5
0.5
0.5
0.5
0.5
0.5
0.5
0.5
0.5
0.5
0.5
0.5
0.5
0.5
0.5
0.5
0.5
0.5
0.5
0.5
0.5
0.5
0.5
0.5
0.5
0.5
0.5
0.5
0.5
0.5
0.5
0.5
0.5
0.5
0.5
0.5
0.45
0.5
0.5
0.5
0.5
0.5
0.5
0.5
0.5
0.5
0.5
0.45
0.5
0.5
0.5
0.5
0.5
0.5
0.5
0.5
0.5
0.5
0.5
0.5
0.5
0.5
0.5
0.5
0.5
0.5
0.5
0.5
0.5
0.5
0.5
0.5
0.5
0.5
0.5
0.5
0.5
0.5
0.5
0.5
0.5
0.5
0.5
0.5
0.5
0.5
0.5
0.5
0.5
0.5
0.5
0.5
0.5
0.5
0.5
0.5
0.5
0.5
0.5
0.5
0.5
0.5
0.5
0.5
0.5
0.5
0.5
0.5
0.5
0.5
0.5
0.5
0.5
0.5
0.5
0.5
0.5
0.5
0.5
0.5
0.5
0.5
0.5
0.5
0.5
0.5
0.5
0.5
0.5
0.5
0.5
0.5
0.5
0.5
0.5
0.5
0.5
0.5
0.5
0.5
0.5
0.5
0.5
0.5
0.5
0.5
0.5
0.5
0.5
0.5
0.5
0.5
0.5
0.5
0.5
0.5
0.5
0.5
0.5
0.5
0.5
0.5
0.5
0.5
0.5
0.5
0.5
0.5
0.5
0.5
0.5
0.5
0.5
0.5
0.5
0.5
0.5
0.5
0.5
0.5
0.5
0.5
0.5
0.5
0.5
0.5
0.5
0.5
0.5
0.5
0.5
0.5
0.5
0.5
0.5
0.5
0.5
0.5
0.5
0.5
0.5
0.5
0.55
0.5
0.5
0.5
0.5
0.5
0.5
0.5
0.5
0.5
0.5
0.5
0.5
0.5
0.5
0.5
0.5
0.5
0.5
0.5
0.5
0.5
0.5
0.5
0.5
0.5
0.5
0.5
0.5
0.5
0.5
0.5
0.5
0.5
0.5
0.5
0.5
0.5
0.5
0.5
0.5
0.5
0.5
0.5
0.55
0.5
0.5
0.5
0.5

SCALARS name double
LOOKUP_TABLE default
91
219
21
180
99
261
48
264
218
240
54
26
197
55
188
109
222
250
40
132
169
15
97
248
1
159
44
86
196
74
11
136
201
152
236
52
35
175
198
31
60
29
118
200
138
89
214
63
36
237
76
141
96
3
37
235
78
94
165
234
168
120
190
212
122
7
220
93
154
69
224
241
67
100
243
70
62
263
71
208
251
163
149
204
211
231
115
177
32
144
16
199
182
114
57
85
225
166
22
207
33
156
64
167
246
245
23
87
242
268
183
228
194
258
192
170
229
10
119
124
13
189
66
2
61
106
139
147
178
158
39
133
140
88
160
73
121
6
150
142
259
113
256
4
47
252
262
128
103
49
24
249
226
143
148
95
216
38
146
230
265
135
79
253
17
134
27
116
191
257
171
254
104
217
84
59
25
125
123
232
205
238
8
46
153
227
34
75
107
5
145
157
20
50
269
206
80
28
19
244
77
117
9
51
260
130
210
110
161
213
186
185
181
101
127
209
215
187
14
83
162
18
53
105
247
255
90
56
92
58
102
68
239
195
155
129
202
111
12
151
0
72
43
98
266
81
42
41
223
82
176
272
203
184
172
267
126
164
193
270
45
108
137
233
173
221
112
65
131
30
174
271
179

SCALARS interaction_phenotype double
LOOKUP_TABLE default
0
0
0
0
0
0
0
0
0
0
0
0
0
0
0
0
0
0
0
0
0
0
0
0
0
0
0
0
0
0
0
0
0
0
0
0
0
0
0
0
0
0
0
0
0
0
0
0
0
0
0
0
0
0
0
0
0
0
0
0
0
0
0
0
0
0
0
0
0
0
0
0
0
0
0
0
0
0
0
0
0
0
0
0
0
0
0
0
0
0
0
0
0
0
0
0
0
0
0
0
0
0
0
0
0
0
0
0
0
0
0
0
0
0
0
0
0
0
0
0
0
0
0
0
0
0
0
0
0
0
0
0
0
0
0
0
0
0
0
0
0
0
0
0
0
0
0
0
0
0
0
0
0
0
0
0
0
0
0
0
0
0
0
0
0
0
0
0
0
0
0
0
0
0
0
0
0
0
0
0
0
0
0
0
0
0
0
0
0
0
0
0
0
0
0
0
0
0
0
0
0
0
0
0
0
0
0
0
0
0
0
0
0
0
0
0
0
0
0
0
0
0
0
0
0
0
0
0
0
0
0
0
0
0
0
0
0
0
0
0
0
0
0
0
0
0
0
0
0
0
0
0
0
0
0
0
0
0
0
0
0
0
0
0
0
0
0
0
0
0
0
0
0

SCALARS vessel_interaction double
LOOKUP_TABLE default
0
0
0
0
0
0
0
0
0
0
0
0
0
0
0
0
0
0
0
0
0
0
0
0
0
0
0
0
0
0
0
0
0
0
0
0
0
0
0
0
0
0
0
0
0
0
0
0
0
0
0
0
0
0
0
0
0
0
0
0
0
0
0
0
0
0
0
0
0
0
0
0
0
0
0
0
0
0
0
0
0
0
0
0
0
0
0
0
0
0
0
0
0
0
0
0
0
0
0
0
0
0
0
0
0
0
0
0
0
0
0
0
0
0
0
0
0
0
0
0
0
0
0
0
0
0
0
0
0
0
0
0
0
0
0
0
0
0
0
0
0
0
0
0
0
0
0
0
0
0
0
0
0
0
0
0
0
0
0
0
0
0
0
0
0
0
0
0
0
0
0
0
0
0
0
0
0
0
0
0
0
0
0
0
0
0
0
0
0
0
0
0
0
0
0
0
0
0
0
0
0
0
0
0
0
0
0
0
0
0
0
0
0
0
0
0
0
0
0
0
0
0
0
0
0
0
0
0
0
0
0
0
0
0
0
0
0
0
0
0
0
0
0
0
0
0
0
0
0
0
0
0
0
0
0
0
0
0
0
0
0
0
0
0
0
0
0
0
0
0
0
0
0

SCALARS is_follower double
LOOKUP_TABLE default
1
1
1
1
1
1
1
1
1
1
1
1
1
1
1
1
1
1
1
1
1
1
1
1
1
1
1
1
1
1
1
1
1
1
1
1
1
1
1
1
1
1
1
1
1
1
1
1
1
1
1
1
1
1
1
1
1
1
1
1
1
1
1
1
1
1
1
1
1
1
1
1
1
1
1
1
1
1
1
1
1
1
1
1
1
1
1
1
1
1
1
1
1
1
1
1
1
1
1
1
1
1
1
1
1
1
1
1
1
1
1
1
1
1
1
1
1
1
1
1
1
1
1
1
1
1
1
1
1
1
1
1
1
1
1
1
1
1
1
1
1
1
1
1
1
1
1
1
1
1
1
1
1
1
1
1
1
1
1
1
1
1
1
1
1
1
1
1
1
1
1
1
1
1
1
1
1
1
1
1
1
1
1
1
1
1
1
1
1
1
1
1
1
1
1
1
1
1
1
1
1
1
1
1
1
1
1
1
1
1
1
1
1
1
1
1
1
1
1
1
1
1
1
1
1
1
1
1
1
1
1
1
1
1
1
1
1
1
1
1
1
1
1
1
1
1
1
1
1
1
1
1
1
1
1
1
1
1
1
1
1
1
1
1
1
1
1
1
1
1
1
1
1

SCALARS polarised double
LOOKUP_TABLE default
0
0
0
0
0
0
0
0
0
0
0
0
0
0
0
0
0
0
0
0
0
0
0
0
0
0
0
0
0
0
0
0
0
0
0
0
0
0
0
0
0
0
0
0
0
0
0
0
0
0
0
0
0
0
0
0
0
0
0
0
0
0
0
0
0
0
0
0
0
0
0
0
0
0
0
0
0
0
0
0
0
0
0
0
0
0
0
0
0
0
0
0
0
0
0
0
0
0
0
0
0
0
0
0
0
0
0
0
0
0
0
0
0
0
0
0
0
0
0
0
0
0
0
0
0
0
0
0
0
0
0
0
0
0
0
0
0
0
0
0
0
0
0
0
0
0
0
0
0
0
0
0
0
0
0
0
0
0
0
0
0
0
0
0
0
0
0
0
0
0
0
0
0
0
0
0
0
0
0
0
0
0
0
0
0
0
0
0
0
0
0
0
0
0
0
0
0
0
0
0
0
0
0
0
0
0
0
0
0
0
0
0
0
0
0
0
0
0
0
0
0
0
0
0
0
0
0
0
0
0
0
0
0
0
0
0
0
0
0
0
0
0
0
0
0
0
0
0
0
0
0
0
0
0
0
0
0
0
0
0
0
0
0
0
0
0
0
0
0
0
0
0
0

