# vtk DataFile Version 2.0
Unstructured grid legacy vtk file with point scalar data
ASCII

DATASET UNSTRUCTURED_GRID
POINTS 249 double
66.2579 99.0787 103.03
65.8383 108.667 94.581
64.6962 114.035 101.385
65.0625 106.784 105.411
65.0092 116.63 92.7975
75.6519 99.1956 90.5323
73.4377 98.5626 99.0019
69.4255 104.09 99.7038
72.9913 102.56 106.685
75.6685 104.417 114.786
73.705 107.236 93.1966
72.0903 113.865 88.1211
72.0657 109.384 101.42
69.7362 108.381 111.491
75.6093 112.845 114.438
68.6586 107.577 119.753
75.2477 114.406 79.3375
72.1304 114.749 96.5764
85.6856 84.3463 106.829
81.8628 92.3991 95.2754
81.7042 89.5824 101.931
82.7237 92.0386 110.531
76.4552 95.0144 105.411
78.2594 92.61 117.551
82.2685 91.6889 125.315
83.1353 95.4603 90.1553
81.0301 104.206 94.0306
78.9731 95.3313 97.1892
83.1399 98.7248 101.393
80.5529 103.808 106.633
83.3473 103.036 113.747
84.76 97.9857 120.248
76.4332 99.6325 121.683
81.4728 99.707 128.196
83.1473 111.096 80.3482
79.7947 109.967 88.3171
77.2616 104.907 100.263
80.0929 112.01 98.1839
85.5428 106.654 101.809
83.0703 111.407 111.82
76.8974 110.579 106.502
83.9789 107.052 120.711
82.4453 119.374 83.3491
78.145 117.731 91.7037
84.5593 119.411 96.0708
85.224 114.693 103.727
79.8309 119.501 113.604
84.6059 118.371 109.241
81.2515 115.152 119.992
83.6384 124.257 104.701
94.2341 85.3593 93.4747
92.1216 85.57 101.651
95.058 92.9983 83.0932
86.4995 93.19 82.5598
88.007 91.2331 96.4727
88.7776 93.0609 104.484
90.0746 88.4382 110.273
94.6369 89.0965 115.33
87.0973 89.8392 117.966
92.2996 94.6793 122.781
89.5685 98.6477 78.9157
90.286 97.5264 87.8011
93.1421 104.673 89.9602
93.6433 96.3634 95.355
87.7987 100.64 95.408
91.5877 100.704 102.011
86.5576 99.7963 108.025
90.0246 95.749 113.415
94.4077 100.601 107.374
91.2863 102.173 118.237
87.8096 102.808 125.79
92.8822 99.9753 127.103
91.8999 104.245 133.917
89.469 108.577 66.6248
91.3146 112.593 72.945
89.2127 106.193 81.5324
95.0236 110.654 85.1351
87.6044 113.294 87.5008
94.5033 112.416 92.8833
87.2363 108.353 93.3003
93.2976 107.244 98.7447
88.7657 113.466 97.8947
94.4028 113.764 103.453
90.0056 106.851 109.265
91.7079 108.705 123.168
88.7788 120.656 73.3015
89.9631 115.984 80.4593
88.0141 121.339 89.2649
93.1917 119.986 96.3274
90.9767 120.166 104.917
89.4451 122.822 112.251
88.594 114.979 116.1
94.7763 115.591 120.52
89.4149 124.297 81.5046
94.5858 126.255 90.6232
90.5585 128.046 97.7756
93.1951 125.968 106.766
98.9548 83.415 86.8399
100.193 85.3957 100.178
103.929 80.7574 98.4197
102.526 78.4542 105.153
100.959 78.3109 113.553
97.5825 85.224 107.92
101.32 91.8554 78.0315
99.3971 90.4212 88.9125
96.8671 90.8959 98.3463
104.738 93.9484 98.6717
103.544 90.9854 105.395
102.202 89.8569 113.415
96.0546 93.6081 108.776
98.6294 89.0609 122.707
104.176 94.8848 123.147
102.48 100.679 77.1127
95.8549 101.272 82.6218
104.36 98.2098 84.4243
98.3413 98.4201 89.6259
98.1184 96.9352 102.368
104.393 100.753 102.89
98.7035 102.257 96.7967
95.5078 100.984 112.494
102.119 104.139 112.992
103.781 97.008 110.848
98.2096 96.1404 117.377
98.8482 104.337 121.325
98.7399 102.268 129.997
104.65 114.194 64.7502
97.7884 111.049 69.3211
96.1022 105.819 75.9271
104.092 109.807 70.7805
104.055 108.954 76.282
101.444 107.084 82.4474
97.9832 113.385 77.9811
100.631 107.588 90.9476
102.543 108.11 100.13
97.4946 106.194 105.81
101.665 111.091 108.477
95.4787 108.786 114.891
104.439 110.257 116.715
102.158 109.336 131.661
96.8371 119.261 72.7664
103.067 117.917 84.0864
95.4481 118.629 87.6895
101.266 118.336 92.4333
100.045 115.551 98.8364
100.095 118.822 105.602
95.498 116.478 111.873
96.0608 123.39 117.313
101.709 117.814 118.581
99.9261 115.451 127.066
103.001 122.906 125.055
98.5614 120.024 133.754
97.8048 124.502 82.6994
102.339 125.001 89.8909
97.1866 124.928 101.746
100.025 128.482 95.6251
97.9412 131.882 99.2617
101.904 130.964 105.107
96.1655 127.368 110.937
104.306 124.841 109.438
101.458 131.79 113.523
104.649 125.722 133.071
106.164 80.4071 85.2696
106.957 76.3076 97.2703
108.551 84.2396 103.952
114.128 85.0528 97.4012
107.437 83.6087 112.598
108.845 90.591 85.6502
104.961 94.8257 91.5008
105.984 85.8681 90.6213
111.932 92.6064 93.8657
106.837 87.2833 97.0548
109.923 90.7928 109.837
106.321 87.2199 120.047
110.359 94.2728 117.536
109.784 94.168 129.948
108.903 95.6892 78.4791
109.915 104.666 78.3438
112.862 97.6264 86.9579
106.654 103.024 94.3824
111.495 96.2532 102.771
111.766 98.6313 111.115
106.976 102.261 119.415
106.021 101.302 127.464
113.985 101.845 127.025
105.386 102.889 135.478
108.999 105.153 69.9371
107.946 111.524 82.0978
108.373 104.909 86.7928
114.014 108.683 91.3278
106.609 112.552 89.6858
109.865 110.647 97.5464
113.721 112.539 105.003
110.949 106.492 113.417
108.054 107.082 105.667
112.515 108.565 121.417
104.998 108.967 124.627
111.391 107.955 132.199
105.574 111.425 138.38
107.206 116.738 75.8452
111.042 118.874 85.931
108.902 118.539 94.0875
104.927 123.061 99.9906
106.665 115.362 102.791
113.43 119.668 99.9833
104.882 117.05 111.625
111.362 119.704 108.25
111.744 114.395 115.151
109.316 122.114 116.319
108.172 116.123 122.534
113.429 114.672 128.098
106.104 117.415 131.593
113.963 120.738 125.423
106.6 126.19 83.5405
110.636 125.767 91.0106
107.026 130.528 95.3924
108.051 131.255 101.396
111.497 126.753 104.968
118.467 92.9467 98.5336
115.811 88.7375 105.002
118.177 94.0211 113.575
115.635 93.9077 124.275
119.687 97.397 81.8152
120.01 95.3912 90.4581
114.659 99.871 95.1483
122.089 100.264 100.081
118.342 100.265 107.48
115.501 100.812 118.5
116.243 109.129 71.3063
114.945 112.228 78.7785
116.09 105.244 83.8805
121.449 105.887 77.8739
121.057 110.911 87.7918
121.021 105.591 94.6854
114.685 105.031 101.434
117.929 112.623 98.5074
121.481 107.893 104.79
119.262 106.145 113.473
118.738 113.414 110.313
119.475 112.9 118.808
119.266 108.987 126.806
117.964 112.833 133.44
117.204 113.027 140.874
116.941 116.888 91.731
119.26 119.517 105.252
116.339 119.267 120.282
122.758 121.097 117.624
123.381 116.692 124.769
118.3 124.727 94.6896
125.973 115.062 113.166

POINT_DATA 249
SCALARS radius double
LOOKUP_TABLE default
5.03939
5.03939
5.08931
5.03939
5.08931
5.07271
5.03939
4.43939
5.03939
5.03939
5.03939
5.08931
4.53939
5.09976
5.03939
5.09976
5.07271
5.03939
5.0053
4.02621
5.0053
5.02621
5.0053
5.02621
5.0053
5.07271
5.08931
4.12621
5.02621
4.59976
5.08931
5.07271
5.03939
5.07271
5.08931
5.04636
4.59976
5.02621
5.07271
5.08931
5.02621
5.08931
5.02621
5.03939
5.0053
5.0053
4.59976
4.59976
5.08931
5.0053
5.09809
5.07271
5.04636
4.67271
5.0053
5.0053
4.78931
4.78931
5.07271
5.03939
4.77271
5.0053
5.0053
5.03939
5.07271
5.09976
5.02621
5.0053
4.29976
5.08931
4.29976
4.29976
5.08931
5.07271
5.0053
5.04636
5.08654
5.02272
5.07271
5.07271
5.07271
5.0053
5.03939
5.09976
5.07271
5.02621
5.08931
5.03939
5.03939
5.03939
5.03939
5.08931
5.03939
5.02621
5.03939
5.03939
4.09976
5.08931
5.0053
4.33939
5.03939
5.03939
5.07271
5.04636
5.02621
5.0053
5.07271
5.09809
5.02621
5.03939
5.0053
5.02621
5.04636
5.04636
5.09809
5.03939
5.0053
5.08931
5.08931
4.39976
5.03939
5.07271
5.03939
5.08931
5.08931
5.02621
5.02621
5.0053
4.27271
4.27271
5.09809
5.08654
5.0053
5.0053
5.02621
5.08931
5.02621
5.08931
5.03939
5.07271
5.03939
5.06831
5.04768
5.04768
5.03939
5.08931
5.08931
5.08931
5.03939
5.04768
5.00635
5.09976
5.02621
5.03939
4.09976
4.19976
5.07271
4.19976
5.07271
5.03939
5.00635
5.08931
4.43939
5.03939
5.03939
5.02621
5.09809
5.02621
4.59976
5.09809
4.59976
5.02621
5.07271
5.08931
5.07271
5.04636
5.02621
5.09809
5.09809
5.07271
5.08931
5.03939
5.07271
5.08931
5.04768
5.07271
5.08931
5.02621
5.0053
5.02621
5.07271
5.02621
5.09976
5.02621
5.08931
5.03939
5.04768
5.04768
5.03939
5.03939
5.02621
5.08931
5.03939
5.08931
5.08931
5.08931
5.02621
5.0053
5.08931
5.04768
5.04768
4.19976
5.09976
5.08931
4.48931
4.58931
5.07271
5.03728
5.03939
5.08931
5.07271
5.07271
5.09809
5.04636
5.04636
5.08931
5.03939
5.04636
5.08931
5.07271
5.04636
5.0053
5.04636
5.07271
5.07271
5.04768
5.04768
5.02621
5.03939
5.08931
4.80635
4.90635
5.02621
5.07271
4.19976
5.03939
5.03939
5.08931
5.02621

SCALARS status double
LOOKUP_TABLE default
1
1
1
1
1
1
1
1
1
1
1
1
1
1
1
1
1
1
1
1
1
1
1
1
1
1
1
1
1
1
1
1
1
1
1
1
1
1
1
1
1
1
1
1
1
1
1
1
1
1
1
1
1
1
1
2
1
1
1
1
1
1
1
1
1
1
1
2
1
1
1
1
1
1
1
1
1
1
1
1
1
1
1
1
1
1
1
1
1
1
1
1
1
1
1
1
1
1
1
1
1
1
1
1
1
1
1
1
1
1
1
1
1
1
1
1
1
1
1
1
1
1
1
1
1
1
1
1
1
1
1
1
1
1
1
1
1
1
1
1
1
1
1
1
1
1
1
1
1
1
1
1
1
1
1
1
1
1
1
1
1
1
1
1
1
1
1
1
1
1
1
1
1
1
1
1
1
1
1
1
1
1
1
1
1
1
1
1
1
1
1
1
1
1
1
1
1
1
1
1
1
1
1
1
1
1
1
1
1
1
1
1
1
1
1
1
1
1
1
1
1
1
1
1
1
1
1
1
1
1
1
1
1
1
1
1
1
1
1
1
1
1
1
1
1
1
1
1
1

SCALARS concentration double
LOOKUP_TABLE default
33.6655
35.1842
34.4128
34.7652
34.86
35.0223
36.4153
35.0611
35.4016
35.3189
35.1842
35.1842
35.0611
34.7652
36.4044
34.7652
38.3969
36.6135
35.1196
36.1108
35.6299
35.0071
35.6299
35.0071
34.7393
36.1108
36.4153
36.1108
37.2165
36.4153
37.6381
35.8637
35.3189
35.8637
38.3969
37.9921
36.4153
36.9403
38.09
38.0035
36.9403
37.4803
38.3969
36.6135
38.2926
39.5437
38.2658
38.2658
38.0035
39.0578
35.5803
36.5692
37.9313
36.5237
36.3559
36.6892
38.1319
38.1319
35.9857
37.5292
36.5237
36.5237
38.9275
38.5913
37.5849
38.2641
37.2165
36.6892
37.8005
37.8005
37.5292
37.5292
37.9769
39.3081
38.7479
38.7088
41.2466
41.2466
38.9275
38.09
38.9275
38.2926
40.3223
38.2641
39.2266
40.7712
38.3969
40.0877
40.4274
40.0073
40.0073
40.0073
41.0738
40.7712
42.2639
42.2639
42.9547
36.8527
37.319
36.3726
36.3726
36.3726
36.5692
37.9313
37.319
37.4989
37.319
38.1804
38.1319
38.2641
37.5493
40.1002
39.1766
38.4807
40.4254
38.5913
37.4989
39.6258
38.5913
37.8005
37.8005
40.2067
38.8638
38.9067
38.9213
41.7097
41.7097
39.4678
41.4161
41.4161
40.8589
41.2466
40.834
40.834
39.2791
41.5773
39.2791
40.1952
41.4952
40.7712
42.8912
41.2466
41.2466
41.2466
43.3481
41.2339
42.5431
42.7336
41.0738
43.1466
43.1466
43.53
44.128
41.7013
43.6386
43.6386
45.6046
42.9547
44.0719
42.9547
43.1466
36.8527
36.3726
37.9308
37.889
36.7162
38.7939
37.319
37.889
39.3469
37.889
39.348
38.1336
40.1002
39.973
39.391
41.4361
40.9289
41.6302
39.9137
40.1002
40.3782
39.973
42.2831
42.393
42.1442
43.5179
41.4361
43.2416
43.255
43.5434
43.3296
42.5379
43.3296
42.2831
41.4952
42.393
43.1466
44.2816
46.1285
44.128
43.3481
43.3481
44.8147
42.7336
44.8147
44.8147
45.7648
43.6875
44.3397
43.1466
46.3666
46.2952
46.3949
46.3146
46.3146
46.6918
41.0433
37.9308
41.2407
40.1002
43.2328
40.9289
41.6302
43.081
41.7636
42.0702
44.655
43.5179
43.2328
44.655
43.2416
41.6302
43.3296
46.4606
44.0709
44.0709
46.8938
45.4864
45.3167
44.3397
44.3397
46.3949
46.8938
46.3666
48.8627
48.8627
46.3949
46.8938

SCALARS fibres double
LOOKUP_TABLE default
0
0
0
0
0
0
0
0
0
0
0
0
0
0
0
0
0
0
0
0
0
0
0
0
0
0
0
0
0
0
0
0
0
0
0
0
0
0
0
0
0
0
0
0
0
0
0
0
0
0
0
0
0
0
0
0
0
0
0
0
0
0
0
0
0
0
0
0
0
0
0
0
0
0
0
0
0
0
0
0
0
0
0
0
0
0
0
0
0
0
0
0
0
0
0
0
0
0
0
0
0
0
0
0
0
0
0
0
0
0
0
0
0
0
0
0
0
0
0
0
0
0
0
0
0
0
0
0
0
0
0
0
0
0
0
0
0
0
0
0
0
0
0
0
0
0
0
0
0
0
0
0
0
0
0
0
0
0
0
0
0
0
0
0
0
0
0
0
0
0
0
0
0
0
0
0
0
0
0
0
0
0
0
0
0
0
0
0
0
0
0
0
0
0
0
0
0
0
0
0
0
0
0
0
0
0
0
0
0
0
0
0
0
0
0
0
0
0
0
0
0
0
0
0
0
0
0
0
0
0
0
0
0
0
0
0
0
0
0
0
0
0
0
0
0
0
0
0
0

SCALARS phenot double
LOOKUP_TABLE default
7
7
7
7
7
7
7
7
7
7
7
7
7
7
7
7
7
7
7
7
7
7
7
7
7
7
7
7
7
7
7
7
7
7
7
7
7
7
7
7
7
7
7
7
7
7
7
7
7
7
7
7
7
7
7
7
7
7
7
7
7
7
7
7
7
7
7
7
7
7
7
7
7
7
7
7
7
7
7
7
7
7
7
7
7
7
7
7
7
7
7
7
7
7
7
7
7
7
7
7
7
7
7
7
7
7
7
7
7
7
7
7
7
7
7
7
7
7
7
7
7
7
7
7
7
7
7
7
7
7
7
7
7
7
7
7
7
7
7
7
7
7
7
7
7
7
7
7
7
7
7
7
7
7
7
7
7
7
7
7
7
7
7
7
7
7
7
7
7
7
7
7
7
7
7
7
7
7
7
7
7
7
7
7
7
7
7
7
7
7
7
7
7
7
7
7
7
7
7
7
7
7
7
7
7
7
7
7
7
7
7
7
7
7
7
7
7
7
7
7
7
7
7
7
7
7
7
7
7
7
7
7
7
7
7
7
7
7
7
7
7
7
7
7
7
7
7
7
7

SCALARS cont_pheno double
LOOKUP_TABLE default
0.5
0.5
0.5
0.5
0.5
0.5
0.5
0.5
0.5
0.5
0.5
0.5
0.5
0.5
0.5
0.5
0.5
0.5
0.5
0.5
0.5
0.5
0.5
0.5
0.5
0.5
0.5
0.5
0.5
0.5
0.5
0.5
0.5
0.5
0.5
0.5
0.5
0.5
0.5
0.5
0.5
0.5
0.5
0.5
0.5
0.5
0.5
0.5
0.5
0.5
0.5
0.5
0.5
0.5
0.5
0.45
0.5
0.5
0.5
0.5
0.5
0.5
0.5
0.5
0.5
0.5
0.5
0.45
0.5
0.5
0.5
0.5
0.5
0.5
0.5
0.5
0.5
0.5
0.5
0.5
0.5
0.5
0.5
0.5
0.5
0.5
0.5
0.5
0.5
0.5
0.5
0.5
0.5
0.5
0.5
0.5
0.5
0.5
0.5
0.5
0.5
0.5
0.5
0.5
0.5
0.5
0.5
0.5
0.5
0.5
0.5
0.5
0.5
0.5
0.5
0.5
0.5
0.5
0.5
0.5
0.5
0.5
0.5
0.5
0.5
0.5
0.5
0.5
0.5
0.5
0.5
0.5
0.5
0.5
0.5
0.5
0.5
0.5
0.5
0.5
0.5
0.5
0.5
0.5
0.5
0.5
0.5
0.5
0.5
0.5
0.5
0.5
0.5
0.5
0.5
0.5
0.5
0.5
0.5
0.5
0.5
0.5
0.5
0.5
0.5
0.5
0.5
0.5
0.5
0.5
0.5
0.5
0.5
0.5
0.5
0.5
0.5
0.5
0.5
0.5
0.5
0.5
0.5
0.5
0.5
0.5
0.5
0.5
0.5
0.5
0.5
0.5
0.5
0.5
0.5
0.5
0.5
0.5
0.5
0.5
0.5
0.5
0.5
0.5
0.5
0.5
0.5
0.5
0.5
0.5
0.5
0.55
0.5
0.5
0.5
0.5
0.5
0.5
0.5
0.5
0.5
0.5
0.5
0.5
0.5
0.5
0.5
0.5
0.5
0.5
0.5
0.5
0.5
0.5
0.5
0.5
0.5
0.5
0.5
0.5
0.5
0.5
0.5
0.5
0.55
0.5
0.5
0.5
0.5

SCALARS name double
LOOKUP_TABLE default
91
219
21
180
99
48
218
240
54
26
55
188
109
222
40
132
169
15
97
248
1
159
152
44
86
196
74
11
136
236
52
35
197
175
198
31
201
60
29
118
200
138
89
214
36
63
76
237
141
96
3
37
78
235
94
165
234
168
120
190
212
122
7
220
93
154
224
69
241
67
100
243
16
70
62
71
208
163
149
204
211
231
115
177
32
199
182
114
85
225
166
22
207
156
64
167
246
23
87
242
183
228
194
192
170
229
205
10
119
124
13
189
66
2
61
106
139
20
147
178
158
39
133
140
88
103
160
73
244
121
6
150
142
113
4
47
144
110
128
49
24
57
226
143
148
95
33
216
38
146
230
135
79
17
134
245
27
116
68
191
171
217
104
84
195
59
25
232
125
123
238
8
46
153
227
75
107
5
145
50
206
80
28
42
19
34
77
157
9
117
51
172
130
210
161
213
186
181
101
127
209
58
215
187
14
83
162
18
53
185
105
247
90
56
92
239
102
129
202
111
12
151
155
0
72
98
81
41
223
82
176
203
184
43
112
126
164
193
45
108
137
233
173
65
131
30
174
221
179

SCALARS interaction_phenotype double
LOOKUP_TABLE default
0
0
0
0
0
0
0
0
0
0
0
0
0
0
0
0
0
0
0
0
0
0
0
0
0
0
0
0
0
0
0
0
0
0
0
0
0
0
0
0
0
0
0
0
0
0
0
0
0
0
0
0
0
0
0
0
0
0
0
0
0
0
0
0
0
0
0
0
0
0
0
0
0
0
0
0
0
0
0
0
0
0
0
0
0
0
0
0
0
0
0
0
0
0
0
0
0
0
0
0
0
0
0
0
0
0
0
0
0
0
0
0
0
0
0
0
0
0
0
0
0
0
0
0
0
0
0
0
0
0
0
0
0
0
0
0
0
0
0
0
0
0
0
0
0
0
0
0
0
0
0
0
0
0
0
0
0
0
0
0
0
0
0
0
0
0
0
0
0
0
0
0
0
0
0
0
0
0
0
0
0
0
0
0
0
0
0
0
0
0
0
0
0
0
0
0
0
0
0
0
0
0
0
0
0
0
0
0
0
0
0
0
0
0
0
0
0
0
0
0
0
0
0
0
0
0
0
0
0
0
0
0
0
0
0
0
0
0
0
0
0
0
0
0
0
0
0
0
0

SCALARS vessel_interaction double
LOOKUP_TABLE default
0
0
0
0
0
0
0
0
0
0
0
0
0
0
0
0
0
0
0
0
0
0
0
0
0
0
0
0
0
0
0
0
0
0
0
0
0
0
0
0
0
0
0
0
0
0
0
0
0
0
0
0
0
0
0
0
0
0
0
0
0
0
0
0
0
0
0
0
0
0
0
0
0
0
0
0
0
0
0
0
0
0
0
0
0
0
0
0
0
0
0
0
0
0
0
0
0
0
0
0
0
0
0
0
0
0
0
0
0
0
0
0
0
0
0
0
0
0
0
0
0
0
0
0
0
0
0
0
0
0
0
0
0
0
0
0
0
0
0
0
0
0
0
0
0
0
0
0
0
0
0
0
0
0
0
0
0
0
0
0
0
0
0
0
0
0
0
0
0
0
0
0
0
0
0
0
0
0
0
0
0
0
0
0
0
0
0
0
0
0
0
0
0
0
0
0
0
0
0
0
0
0
0
0
0
0
0
0
0
0
0
0
0
0
0
0
0
0
0
0
0
0
0
0
0
0
0
0
0
0
0
0
0
0
0
0
0
0
0
0
0
0
0
0
0
0
0
0
0

SCALARS is_follower double
LOOKUP_TABLE default
1
1
1
1
1
1
1
1
1
1
1
1
1
1
1
1
1
1
1
1
1
1
1
1
1
1
1
1
1
1
1
1
1
1
1
1
1
1
1
1
1
1
1
1
1
1
1
1
1
1
1
1
1
1
1
1
1
1
1
1
1
1
1
1
1
1
1
1
1
1
1
1
1
1
1
1
1
1
1
1
1
1
1
1
1
1
1
1
1
1
1
1
1
1
1
1
1
1
1
1
1
1
1
1
1
1
1
1
1
1
1
1
1
1
1
1
1
1
1
1
1
1
1
1
1
1
1
1
1
1
1
1
1
1
1
1
1
1
1
1
1
1
1
1
1
1
1
1
1
1
1
1
1
1
1
1
1
1
1
1
1
1
1
1
1
1
1
1
1
1
1
1
1
1
1
1
1
1
1
1
1
1
1
1
1
1
1
1
1
1
1
1
1
1
1
1
1
1
1
1
1
1
1
1
1
1
1
1
1
1
1
1
1
1
1
1
1
1
1
1
1
1
1
1
1
1
1
1
1
1
1
1
1
1
1
1
1
1
1
1
1
1
1
1
1
1
1
1
1

SCALARS polarised double
LOOKUP_TABLE default
0
0
0
0
0
0
0
0
0
0
0
0
0
0
0
0
0
0
0
0
0
0
0
0
0
0
0
0
0
0
0
0
0
0
0
0
0
0
0
0
0
0
0
0
0
0
0
0
0
0
0
0
0
0
0
0
0
0
0
0
0
0
0
0
0
0
0
0
0
0
0
0
0
0
0
0
0
0
0
0
0
0
0
0
0
0
0
0
0
0
0
0
0
0
0
0
0
0
0
0
0
0
0
0
0
0
0
0
0
0
0
0
0
0
0
0
0
0
0
0
0
0
0
0
0
0
0
0
0
0
0
0
0
0
0
0
0
0
0
0
0
0
0
0
0
0
0
0
0
0
0
0
0
0
0
0
0
0
0
0
0
0
0
0
0
0
0
0
0
0
0
0
0
0
0
0
0
0
0
0
0
0
0
0
0
0
0
0
0
0
0
0
0
0
0
0
0
0
0
0
0
0
0
0
0
0
0
0
0
0
0
0
0
0
0
0
0
0
0
0
0
0
0
0
0
0
0
0
0
0
0
0
0
0
0
0
0
0
0
0
0
0
0
0
0
0
0
0
0

