# vtk DataFile Version 2.0
Unstructured grid legacy vtk file with point scalar data
ASCII

DATASET UNSTRUCTURED_GRID
POINTS 31 double
74.7721 110.053 101.188
81.8403 105.79 99.7548
78.0101 105.008 107.256
94.3531 100.719 94.0946
89.1039 103.439 100.691
91.1482 97.7311 109.422
98.126 93.5356 95.4482
102.385 93.1756 102.155
102.501 100.592 97.5632
96.8093 98.2037 103.96
95.7491 102.296 101.048
98.5022 102.474 110.51
102.901 98.4444 116.158
96.7429 103.977 118.462
102.434 104.774 120.592
97.0038 108.385 90.0421
97.3056 107.864 98.3295
102.837 105.133 104.425
103.92 113.868 102.98
101.656 110.391 113.948
96.9461 110.374 106.468
100.362 115.566 94.9328
98.363 118.321 103.433
109.864 98.7743 94.316
107.484 102.314 87.0133
105.695 97.534 108.277
105.361 109.312 97.5571
108.05 104.975 109.947
107.191 112.002 107.93
107.45 108.615 119.465
109.397 107.981 114.716

POINT_DATA 31
SCALARS radius double
LOOKUP_TABLE default
5.07271
5.0053
5.07271
5.09809
5.04636
5.03728
5.03728
5.0053
5.08666
4.19809
4.19809
5.0053
5.04636
4.2053
4.3053
5.08666
5.09809
5.0053
4.39809
5.07271
5.07271
5.07271
5.07271
5.08666
5.08666
5.0053
5.03728
5.0053
4.49809
4.07271
4.17271

SCALARS status double
LOOKUP_TABLE default
1
1
1
1
1
1
1
1
1
1
1
1
1
1
1
1
1
1
1
1
1
1
1
1
1
1
1
1
1
1
1

SCALARS concentration double
LOOKUP_TABLE default
38.9575
38.9575
38.9575
38.9575
38.9575
38.9575
38.9575
38.9575
38.9575
38.9575
38.9575
38.9575
38.9575
38.9575
38.9575
38.9575
38.9575
38.9575
38.9575
38.9575
38.9575
38.9575
38.9575
38.9575
38.9575
38.9575
38.9575
38.9575
38.9575
38.9575
38.9575

SCALARS fibres double
LOOKUP_TABLE default
0
0
0
0
0
0
0
0
0
0
0
0
0
0
0
0
0
0
0
0
0
0
0
0
0
0
0
0
0
0
0

SCALARS phenot double
LOOKUP_TABLE default
7
7
7
7
7
7
7
7
7
7
7
7
7
7
7
7
7
7
7
7
7
7
7
7
7
7
7
7
7
7
7

SCALARS cont_pheno double
LOOKUP_TABLE default
0.5
0.5
0.5
0.5
0.5
0.5
0.5
0.5
0.5
0.5
0.5
0.5
0.5
0.5
0.5
0.5
0.5
0.5
0.5
0.5
0.5
0.5
0.5
0.5
0.5
0.5
0.5
0.5
0.5
0.5
0.5

SCALARS name double
LOOKUP_TABLE default
21
15
26
2
11
1
3
23
0
10
29
4
13
16
28
6
7
20
27
14
22
24
17
5
25
8
9
12
18
19
30

SCALARS interaction_phenotype double
LOOKUP_TABLE default
0
0
0
0
0
0
0
0
0
0
0
0
0
0
0
0
0
0
0
0
0
0
0
0
0
0
0
0
0
0
0

SCALARS vessel_interaction double
LOOKUP_TABLE default
0
0
0
0
0
0
0
0
0
0
0
0
0
0
0
0
0
0
0
0
0
0
0
0
0
0
0
0
0
0
0

SCALARS is_follower double
LOOKUP_TABLE default
1
1
1
1
1
1
1
1
1
1
1
1
1
1
1
1
1
1
1
1
1
1
1
1
1
1
1
1
1
1
1

SCALARS polarised double
LOOKUP_TABLE default
0
0
0
0
0
0
0
0
0
0
0
0
0
0
0
0
0
0
0
0
0
0
0
0
0
0
0
0
0
0
0

