# vtk DataFile Version 2.0
Unstructured grid legacy vtk file with point scalar data
ASCII

DATASET UNSTRUCTURED_GRID
POINTS 89 double
325.631 338.321 388.607
335.57 330.211 388.074
332.848 335.318 400.3
331.737 336.348 382.79
334.385 343.979 380.788
333.778 337.86 391.278
326.138 341.783 396.479
333.383 342.617 397.809
332.689 342.189 405.941
326.141 354.117 395.987
333.986 350.455 405.768
328.252 361.438 404.068
329.97 361.389 395.742
342.565 332.211 393.768
340.085 329.692 401.878
339.855 336.319 384.554
342.158 340.717 392.639
339.015 345.406 398.306
340.609 338.03 400.638
341.097 344.611 405.992
337.507 338.386 416.465
340.965 348.307 383.887
337.706 349.511 375.94
344.762 351.919 391.474
337.253 353.043 396.495
345.536 348.353 398.911
342.765 352.875 405.377
339.299 349.883 412.582
337.093 346.098 419.783
345.485 349.432 417.793
340.977 356.31 372.729
338.384 355.923 381.195
336.188 358.327 403.419
337.502 363.056 396.247
343.846 357.534 398.688
345.112 370.73 378.748
351.086 345.165 377.525
349.505 344.8 391.758
348.441 340.178 398.988
352.192 345.36 414.008
346.738 340.144 426.652
353.199 350.136 374.631
349.337 349.758 384.683
352.669 354.312 394.569
345.742 349.037 426.278
355.41 360.427 382.519
348.988 357.959 387.817
349.009 357.124 417.058
352.801 367.437 377.552
347.917 365.506 391.441
353.527 368.054 385.684
351.885 373.495 391.83
347.559 376.238 384.806
363.171 331.249 401.876
358.101 338.506 386.364
363.562 343.53 389.271
358.382 339.113 394.378
365.026 340.186 404.722
358.224 344.925 404.596
362.294 336.599 398.875
357.913 350.541 375.784
363.345 346.411 380.658
359.589 349.896 386.68
361.264 354.27 393.209
357.427 346.79 394.222
358.083 351.754 400.511
361.913 355.393 405.977
361.602 349.453 411.501
362.615 360.094 386.368
362.256 361.888 394.557
356.843 359.915 400.54
362.42 363.423 407.444
356.785 357.342 412.204
362.131 369.895 392.886
374.484 342.785 400.681
366.646 342.744 396.937
368.747 352.807 379.333
368.454 349.903 387.672
373.571 348.934 394.58
365.727 348.578 403.355
372.591 353.726 401.465
373.414 347.611 407.573
369.22 356.307 394.079
371.15 357.748 386.095
369.856 365.26 395.949
366.368 359.194 400.932
377.55 341.65 392.863
377.579 356.869 392.23
376.724 355.85 408.587

POINT_DATA 89
SCALARS radius double
LOOKUP_TABLE default
5.04768
5.04768
5.08931
5.09976
5.03939
5.09976
5.04768
4.89976
5.02621
5.08931
5.08931
5.03939
5.03939
5.03939
5.02621
5.04768
5.03939
4.99976
5.03939
5.09976
5.02621
5.08931
5.03939
5.0053
5.09976
5.09976
5.08931
5.09976
5.09976
5.04768
5.08931
5.08931
5.08931
5.02621
5.09976
5.03939
5.02621
5.07271
5.03939
5.08931
5.03939
3.99976
5.02621
5.03939
5.09976
5.08931
5.03939
5.04768
5.03939
5.08931
5.03939
5.09976
5.09976
4.48931
5.07271
5.02621
5.02621
5.07271
5.07271
4.48931
4.09976
5.03939
5.03939
5.04768
5.09976
5.00635
5.00635
5.09976
5.02621
5.02621
5.08931
5.03939
5.03939
5.04768
5.06831
5.02621
5.09976
5.08931
5.03939
5.04768
5.03939
5.04768
5.00635
5.09976
5.00635
5.00635
5.06831
5.00635
5.03939

SCALARS status double
LOOKUP_TABLE default
1
1
1
1
1
1
1
1
1
1
1
1
1
1
1
1
1
1
1
1
1
1
1
1
1
1
1
1
1
1
1
1
1
1
1
1
1
1
1
1
1
1
1
1
1
1
1
1
1
1
1
1
1
1
1
1
1
1
1
1
1
1
1
1
1
1
1
1
1
1
1
1
1
1
1
1
1
1
1
1
1
1
1
1
1
1
1
1
1

SCALARS concentration double
LOOKUP_TABLE default
23.5659
24.5019
25.0745
24.5872
28.1173
24.9422
24.4479
27.6165
26.0133
26.6603
28.9172
28.3773
28.3773
25.9719
25.1009
24.5019
27.2245
27.6165
27.0102
28.4944
26.2169
28.9816
28.1173
31.4808
30.0743
30.6163
31.1793
28.6293
27.8739
32.0734
30.7863
30.2951
28.9172
30.8171
30.0743
36.5502
31.4004
30.464
28.8754
31.9102
28.8614
34.8919
31.8522
35.1132
31.0588
38.4224
34.9488
32.0734
38.9974
36.4154
38.9974
39.3731
38.7153
31.3423
31.8436
34.7841
31.3423
33.0529
33.2614
31.3423
34.8919
34.8417
35.4099
37.8047
33.9686
37.8289
37.8289
36.9017
40.9464
40.9464
39.3725
40.5367
38.1673
43.7981
36.2655
35.3513
40.325
37.5817
39.2297
36.9723
41.7601
38.2305
40.8285
43.3697
43.7114
41.7251
37.0232
44.7215
43.1857

SCALARS fibres double
LOOKUP_TABLE default
0
0
0
0
0
0
0
0
0
0
0
0
0
0
0
0
0
0
0
0
0
0
0
0
0
0
0
0
0
0
0
0
0
0
0
0
0
0
0
0
0
0
0
0
0
0
0
0
0
0
0
0
0
0
0
0
0
0
0
0
0
0
0
0
0
0
0
0
0
0
0
0
0
0
0
0
0
0
0
0
0
0
0
0
0
0
0
0
0

SCALARS phenot double
LOOKUP_TABLE default
7
7
7
7
7
7
7
7
7
7
7
7
7
7
7
7
7
7
7
7
7
7
7
7
7
7
7
7
7
7
7
7
7
7
7
7
7
7
7
7
7
7
7
7
7
7
7
7
7
7
7
7
7
7
7
7
7
7
7
7
7
7
7
7
7
7
7
7
7
7
7
7
7
7
7
7
7
7
7
7
7
7
7
7
7
7
7
7
7

SCALARS cont_pheno double
LOOKUP_TABLE default
0.5
0.5
0.5
0.5
0.5
0.5
0.5
0.5
0.5
0.5
0.5
0.5
0.5
0.5
0.5
0.5
0.5
0.5
0.5
0.5
0.5
0.5
0.5
0.5
0.5
0.5
0.5
0.5
0.5
0.5
0.5
0.5
0.5
0.5
0.5
0.5
0.5
0.5
0.5
0.5
0.5
0.5
0.5
0.5
0.5
0.5
0.5
0.5
0.5
0.5
0.5
0.5
0.5
0.5
0.5
0.5
0.5
0.5
0.5
0.5
0.5
0.5
0.5
0.5
0.5
0.5
0.5
0.5
0.5
0.5
0.5
0.5
0.5
0.5
0.5
0.5
0.5
0.5
0.5
0.5
0.5
0.5
0.5
0.5
0.5
0.5
0.5
0.5
0.5

SCALARS name double
LOOKUP_TABLE default
93
99
80
69
107
76
100
114
52
43
106
83
113
64
31
109
96
67
90
57
59
17
88
5
47
38
62
53
67
81
36
65
18
13
110
78
35
32
103
33
73
116
20
27
64
28
91
113
111
60
86
98
72
104
69
9
55
101
15
115
39
34
77
94
84
46
108
58
25
105
49
41
61
79
50
99
82
48
26
74
75
95
87
29
56
102
89
92
24

SCALARS interaction_phenotype double
LOOKUP_TABLE default
0
0
0
0
0
0
0
0
0
0
0
0
0
0
0
0
0
0
0
0
0
0
0
0
0
0
0
0
0
0
0
0
0
0
0
0
0
0
0
0
0
0
0
0
0
0
0
0
0
0
0
0
0
0
0
0
0
0
0
0
0
0
0
0
0
0
0
0
0
0
0
0
0
0
0
0
0
0
0
0
0
0
0
0
0
0
0
0
0

SCALARS vessel_interaction double
LOOKUP_TABLE default
0
0
0
0
0
0
0
0
0
0
0
0
0
0
0
0
0
0
0
0
0
0
0
0
0
0
0
0
0
0
0
0
0
0
0
0
0
0
0
0
0
0
0
0
0
0
0
0
0
0
0
0
0
0
0
0
0
0
0
0
0
0
0
0
0
0
0
0
0
0
0
0
0
0
0
0
0
0
0
0
0
0
0
0
0
0
0
0
0

SCALARS is_follower double
LOOKUP_TABLE default
1
1
1
1
1
1
1
1
1
1
1
1
1
1
1
1
1
1
1
1
1
1
1
1
1
1
1
1
1
1
1
1
1
1
1
1
1
1
1
1
1
1
1
1
1
1
1
1
1
1
1
1
1
1
1
1
1
1
1
1
1
1
1
1
1
1
1
1
1
1
1
1
1
1
1
1
1
1
1
1
1
1
1
1
1
1
1
1
1

SCALARS polarised double
LOOKUP_TABLE default
0
0
0
0
0
0
0
0
0
0
0
0
0
0
0
0
0
0
0
0
0
0
0
0
0
0
0
0
0
0
0
0
0
0
0
0
0
0
0
0
0
0
0
0
0
0
0
0
0
0
0
0
0
0
0
0
0
0
0
0
0
0
0
0
0
0
0
0
0
0
0
0
0
0
0
0
0
0
0
0
0
0
0
0
0
0
0
0
0

