# vtk DataFile Version 2.0
Unstructured grid legacy vtk file with point scalar data
ASCII

DATASET UNSTRUCTURED_GRID
POINTS 20 double
343.68 343.898 401.902
342.743 343.757 410.321
339.777 351.239 384.001
344.284 348.148 391.179
338.209 353.141 395.76
336.815 354.169 403.75
344.514 351.994 401.412
354.812 340.042 392.792
346.449 340.149 394.806
348.555 348.327 383.494
349.265 354.309 394.702
350.98 346.614 397.218
350.706 348.056 404.826
351.932 356.34 402.762
360.061 344.331 397.772
356.629 350.377 393.666
361.34 355.073 392.06
367.141 345.628 392.537
367.76 350.279 398.908
368.875 353.143 406.534

POINT_DATA 20
SCALARS radius double
LOOKUP_TABLE default
5.04636
5.04636
5.07271
5.0053
5.0053
5.0053
5.0053
5.03728
5.09809
5.07271
5.04636
5.04636
5.04636
5.0053
5.04636
4.6053
4.7053
5.07271
5.02621
5.02621

SCALARS status double
LOOKUP_TABLE default
1
1
1
1
1
1
1
1
1
1
1
1
1
1
1
1
1
1
1
1

SCALARS concentration double
LOOKUP_TABLE default
28.8746
28.7218
29.6663
30.1279
29.6007
29.6347
31.5165
30.841
28.7816
31.6061
33.4574
32.2052
32.3133
35.1944
33.6599
35.1149
35.1149
36.2966
38.6303
39.5824

SCALARS fibres double
LOOKUP_TABLE default
0
0
0
0
0
0
0
0
0
0
0
0
0
0
0
0
0
0
0
0

SCALARS phenot double
LOOKUP_TABLE default
7
7
7
7
7
7
7
7
7
7
7
7
7
7
7
7
7
7
7
7

SCALARS cont_pheno double
LOOKUP_TABLE default
0.5
0.5
0.5
0.5
0.5
0.5
0.5
0.5
0.5
0.5
0.5
0.5
0.5
0.5
0.5
0.5
0.5
0.5
0.5
0.5

SCALARS name double
LOOKUP_TABLE default
12
22
17
19
13
18
21
8
2
20
5
6
23
14
15
3
25
9
16
24

SCALARS interaction_phenotype double
LOOKUP_TABLE default
0
0
0
0
0
0
0
0
0
0
0
0
0
0
0
0
0
0
0
0

SCALARS vessel_interaction double
LOOKUP_TABLE default
0
0
0
0
0
0
0
0
0
0
0
0
0
0
0
0
0
0
0
0

SCALARS is_follower double
LOOKUP_TABLE default
1
1
1
1
1
1
1
1
1
1
1
1
1
1
1
1
1
1
1
1

SCALARS polarised double
LOOKUP_TABLE default
0
0
0
0
0
0
0
0
0
0
0
0
0
0
0
0
0
0
0
0

