# vtk DataFile Version 2.0
Unstructured grid legacy vtk file with point scalar data
ASCII

DATASET UNSTRUCTURED_GRID
POINTS 131 double
323.033 340.556 396.847
325.634 354.242 396.39
331.857 335.728 376.051
334.987 328.945 387.416
327.052 332.261 390.444
332.671 330.981 398.134
334.399 332.976 406.416
326.447 340.377 388.004
333.892 336.238 391.314
330.678 342.9 394.204
329.068 338.005 402.297
332.957 345.401 401.238
335.231 341.015 407.598
328.003 344.142 411.777
333.384 339.233 415.705
332.259 338.943 424.169
327.656 354.653 390.38
331.348 353.347 400.864
333.924 349.817 408.241
333.379 349.059 415.94
327.947 361.926 401.223
335.53 359.763 404.52
328.814 359.373 409.789
340.338 331.571 393.457
339.968 329.221 401.898
345.426 334.491 398.993
342.799 339.714 392.736
336.605 343.619 388.092
337.546 337.983 399.419
342.415 336.366 406.511
342.539 343.047 411.615
339.087 344.027 420.405
345.628 341.341 430.498
340.86 353.599 363.74
341.965 354.571 371.93
336.98 348.429 375.225
340.818 348.876 382.993
344.157 351.902 390.279
337.4 354.174 395.011
340.2 346.456 397.555
339.869 353.51 403.271
343.911 346.826 404.796
340.369 353.493 415.068
342.122 352.37 422.865
338.407 361.151 375.573
342.608 356.965 383.286
336.5 362.107 396.341
344.897 356.645 397.348
343.879 364.441 399.15
343.112 373.765 372.557
343.791 373.538 379.337
345.477 367.273 383.725
341.65 366.268 390.901
351.141 343.651 374.656
352.98 342.831 383.273
345.849 344.423 386.781
350.353 342.86 392.552
347.118 341.774 400.155
354.836 343.838 398.892
350.824 339.069 424.006
351.1 352.065 375.277
352.393 349.758 367.099
349.003 351.002 383.219
355.059 354.807 387.281
348.539 349.048 396.923
351.246 353.688 403.056
345.92 351.042 410.164
351.615 353.79 415.004
346.425 347.479 416.798
350.341 352.272 423.126
345.883 349.884 430.2
354.127 361.007 382.413
348.22 359.771 389.383
353.286 355.665 395.177
347.514 357.057 408.867
353.119 361.125 406.238
353.058 362.872 415.077
346.249 358.758 418.76
348.676 367.189 375.415
354.176 368.995 384.956
347.902 375.169 385.608
353.221 373.678 392.309
354.282 366.934 389.811
364.049 334.935 392.599
364.844 328.661 403.361
356.793 338.769 392.997
360.625 339.157 385.72
363.634 343.853 392.947
364.108 336.55 400.954
358.833 344.127 405.78
357.811 355.405 370.955
357.927 353.342 378.634
361.087 347.767 378.05
362.32 350.626 386.065
361.827 355.136 393.005
356.628 348.132 391.932
359.077 351.16 399.378
365.15 349.254 405.218
362.847 349.674 413.114
358.537 354.829 406.386
356.653 348.572 411.895
361.147 359.792 377.593
361.982 359.644 386.13
364.326 363.298 393.681
359.048 359.712 399.54
361.015 363.185 407.02
359.321 356.857 413.409
361.41 363.163 418.249
357.174 367.524 377.637
361.77 371.769 393.832
367.404 345.118 377.134
367.701 344.202 385.729
371.246 339.963 392.144
374.314 343.47 399.657
366.364 340.957 407.5
371.301 343.693 413.464
367.093 353.558 379.591
370.526 353.404 401.923
374.498 347.86 406.723
365.511 355.508 418.644
367.872 348.932 415.921
370.817 358.94 385.802
370.34 357.301 394.242
367.013 360.952 401.436
374.182 355.631 409.897
366.168 356.752 409.108
372.135 365.519 396.037
379.104 355.191 394.927
384.174 355.431 406.107
379.247 358.064 387.118
376.803 358.305 402.571

POINT_DATA 131
SCALARS radius double
LOOKUP_TABLE default
5.04768
4.33939
5.04768
5.04768
5.00635
5.08931
5.01614
5.00635
5.09976
5.04768
5.01614
5.04768
5.06002
5.08931
5.03939
5.03939
4.23939
5.03939
5.09976
5.09976
5.09976
5.08931
5.09976
5.03939
5.02621
5.09976
5.09976
5.09976
5.09976
5.09976
5.04768
5.09976
5.09976
5.09976
5.09976
5.03939
5.08931
5.0053
5.09976
5.09976
5.03939
5.04768
5.09976
5.04768
5.03939
5.09976
5.03939
5.09976
5.03939
4.44768
4.54768
5.09976
5.08931
5.08931
5.08931
5.02621
5.02621
5.09976
5.08931
5.09976
5.04768
5.04768
5.02621
5.09976
5.04768
5.04768
4.39976
5.04768
5.00635
5.00635
5.04768
5.03939
5.09976
5.03939
4.39976
5.04768
5.04768
5.04768
5.09976
4.09976
5.09976
5.09976
4.09976
5.03939
5.08931
5.02621
5.07271
5.08931
5.03939
5.08931
5.04768
4.60635
4.60635
5.04768
5.04768
5.09976
5.00635
5.04768
4.34768
5.07354
5.08931
5.03939
5.02621
5.02621
5.08931
5.03939
5.00635
5.07354
5.09976
5.04768
5.03939
5.04768
5.08931
5.06831
5.07271
5.00635
5.09976
5.03939
5.00635
5.07354
4.34768
5.09976
5.00635
5.00635
5.09976
5.07354
5.00635
5.02687
5.09976
5.07354
5.02687

SCALARS status double
LOOKUP_TABLE default
1
1
1
1
1
1
1
1
1
1
1
1
1
1
1
1
1
1
1
1
1
1
1
1
1
1
1
1
1
1
1
1
1
1
1
1
1
1
1
1
1
1
1
1
1
1
1
1
1
1
1
1
1
1
1
1
1
1
1
1
1
1
1
1
1
1
1
1
1
1
1
1
1
1
1
1
1
1
1
1
1
1
1
1
1
1
1
1
1
1
1
1
1
1
1
1
1
1
1
1
1
1
1
1
1
1
1
1
1
1
1
1
1
1
1
1
1
1
1
1
1
1
1
1
1
1
1
1
1
1
1

SCALARS concentration double
LOOKUP_TABLE default
24.4479
26.6603
24.5872
24.5019
23.5659
25.0745
26.0133
23.5659
24.9422
27.6165
26.0133
27.6165
26.0133
26.0133
26.2169
26.2169
26.6603
28.9172
28.9172
28.9172
28.3773
28.9172
28.3773
25.9719
25.1009
28.8754
27.2245
27.2245
27.0102
27.0102
28.4944
27.8739
28.8614
30.7863
30.7863
28.1173
28.9816
31.4808
30.0743
27.6165
31.1793
28.4944
28.6293
31.0588
30.7863
34.9488
30.8171
30.0743
30.8171
36.5502
36.5502
36.5502
30.8171
31.4004
31.4004
30.464
30.464
28.8754
33.2614
28.8614
34.8919
34.8919
31.8522
35.4099
30.6163
30.6163
31.1793
38.1673
32.0734
32.0734
31.0588
38.4224
34.9488
35.1132
31.1793
38.1673
38.1673
32.0734
38.9974
38.9974
38.7153
39.3731
38.9974
31.3423
31.3423
31.3423
31.8436
34.7841
31.3423
33.2614
34.8919
34.8919
34.8919
35.4099
37.8047
33.9686
37.8289
36.9723
36.9017
37.8289
33.2614
38.4224
40.9464
40.9464
39.3725
40.5367
38.1673
38.1673
38.9974
43.7981
34.8417
35.4099
35.3513
36.2655
33.0529
38.2305
40.325
41.7601
38.2305
38.1673
36.9017
43.3697
40.8285
41.7251
43.1857
37.8289
43.7114
44.7215
43.1857
44.7215
44.7215

SCALARS fibres double
LOOKUP_TABLE default
0
0
0
0
0
0
0
0
0
0
0
0
0
0
0
0
0
0
0
0
0
0
0
0
0
0
0
0
0
0
0
0
0
0
0
0
0
0
0
0
0
0
0
0
0
0
0
0
0
0
0
0
0
0
0
0
0
0
0
0
0
0
0
0
0
0
0
0
0
0
0
0
0
0
0
0
0
0
0
0
0
0
0
0
0
0
0
0
0
0
0
0
0
0
0
0
0
0
0
0
0
0
0
0
0
0
0
0
0
0
0
0
0
0
0
0
0
0
0
0
0
0
0
0
0
0
0
0
0
0
0

SCALARS phenot double
LOOKUP_TABLE default
7
7
7
7
7
7
7
7
7
7
7
7
7
7
7
7
7
7
7
7
7
7
7
7
7
7
7
7
7
7
7
7
7
7
7
7
7
7
7
7
7
7
7
7
7
7
7
7
7
7
7
7
7
7
7
7
7
7
7
7
7
7
7
7
7
7
7
7
7
7
7
7
7
7
7
7
7
7
7
7
7
7
7
7
7
7
7
7
7
7
7
7
7
7
7
7
7
7
7
7
7
7
7
7
7
7
7
7
7
7
7
7
7
7
7
7
7
7
7
7
7
7
7
7
7
7
7
7
7
7
7

SCALARS cont_pheno double
LOOKUP_TABLE default
0.5
0.5
0.5
0.5
0.5
0.5
0.5
0.5
0.5
0.5
0.5
0.5
0.5
0.5
0.5
0.5
0.5
0.5
0.5
0.5
0.5
0.5
0.5
0.5
0.5
0.5
0.5
0.5
0.5
0.5
0.5
0.5
0.5
0.5
0.5
0.5
0.5
0.5
0.5
0.5
0.5
0.5
0.5
0.5
0.5
0.5
0.5
0.5
0.5
0.5
0.5
0.5
0.5
0.5
0.5
0.5
0.5
0.5
0.5
0.5
0.5
0.5
0.5
0.5
0.5
0.5
0.5
0.5
0.5
0.5
0.5
0.5
0.5
0.5
0.5
0.5
0.5
0.5
0.5
0.5
0.5
0.5
0.5
0.5
0.5
0.5
0.5
0.5
0.5
0.5
0.5
0.5
0.5
0.5
0.5
0.5
0.5
0.5
0.5
0.5
0.5
0.5
0.5
0.5
0.5
0.5
0.5
0.5
0.5
0.5
0.5
0.5
0.5
0.5
0.5
0.5
0.5
0.5
0.5
0.5
0.5
0.5
0.5
0.5
0.5
0.5
0.5
0.5
0.5
0.5
0.5

SCALARS name double
LOOKUP_TABLE default
100
43
121
99
163
80
130
93
76
114
144
152
52
122
136
165
170
106
135
161
83
18
150
64
31
158
96
139
90
132
57
67
73
156
36
88
17
5
47
67
62
166
53
151
120
141
13
110
157
168
78
124
142
35
146
32
164
103
127
154
116
145
20
77
38
126
153
139
81
150
64
28
91
27
169
117
134
113
133
86
72
98
173
137
104
55
69
9
115
15
143
39
167
128
94
84
46
74
58
119
159
125
25
105
49
41
148
161
111
79
34
162
131
50
101
148
82
75
95
61
171
29
87
102
24
108
56
129
118
92
155

SCALARS interaction_phenotype double
LOOKUP_TABLE default
0
0
0
0
0
0
0
0
0
0
0
0
0
0
0
0
0
0
0
0
0
0
0
0
0
0
0
0
0
0
0
0
0
0
0
0
0
0
0
0
0
0
0
0
0
0
0
0
0
0
0
0
0
0
0
0
0
0
0
0
0
0
0
0
0
0
0
0
0
0
0
0
0
0
0
0
0
0
0
0
0
0
0
0
0
0
0
0
0
0
0
0
0
0
0
0
0
0
0
0
0
0
0
0
0
0
0
0
0
0
0
0
0
0
0
0
0
0
0
0
0
0
0
0
0
0
0
0
0
0
0

SCALARS vessel_interaction double
LOOKUP_TABLE default
0
0
0
0
0
0
0
0
0
0
0
0
0
0
0
0
0
0
0
0
0
0
0
0
0
0
0
0
0
0
0
0
0
0
0
0
0
0
0
0
0
0
0
0
0
0
0
0
0
0
0
0
0
0
0
0
0
0
0
0
0
0
0
0
0
0
0
0
0
0
0
0
0
0
0
0
0
0
0
0
0
0
0
0
0
0
0
0
0
0
0
0
0
0
0
0
0
0
0
0
0
0
0
0
0
0
0
0
0
0
0
0
0
0
0
0
0
0
0
0
0
0
0
0
0
0
0
0
0
0
0

SCALARS is_follower double
LOOKUP_TABLE default
1
1
1
1
1
1
1
1
1
1
1
1
1
1
1
1
1
1
1
1
1
1
1
1
1
1
1
1
1
1
1
1
1
1
1
1
1
1
1
1
1
1
1
1
1
1
1
1
1
1
1
1
1
1
1
1
1
1
1
1
1
1
1
1
1
1
1
1
1
1
1
1
1
1
1
1
1
1
1
1
1
1
1
1
1
1
1
1
1
1
1
1
1
1
1
1
1
1
1
1
1
1
1
1
1
1
1
1
1
1
1
1
1
1
1
1
1
1
1
1
1
1
1
1
1
1
1
1
1
1
1

SCALARS polarised double
LOOKUP_TABLE default
0
0
0
0
0
0
0
0
0
0
0
0
0
0
0
0
0
0
0
0
0
0
0
0
0
0
0
0
0
0
0
0
0
0
0
0
0
0
0
0
0
0
0
0
0
0
0
0
0
0
0
0
0
0
0
0
0
0
0
0
0
0
0
0
0
0
0
0
0
0
0
0
0
0
0
0
0
0
0
0
0
0
0
0
0
0
0
0
0
0
0
0
0
0
0
0
0
0
0
0
0
0
0
0
0
0
0
0
0
0
0
0
0
0
0
0
0
0
0
0
0
0
0
0
0
0
0
0
0
0
0

