# vtk DataFile Version 2.0
Unstructured grid legacy vtk file with point scalar data
ASCII

DATASET UNSTRUCTURED_GRID
POINTS 31 double
334.055 355.56 403.857
345.415 337.155 395.236
339.341 337.332 400.674
345.213 343.3 401.231
341.3 345.457 408.918
339.463 342.627 416.701
340.428 351.623 383.312
339.988 355.112 375.62
339.826 346.646 390.63
339.232 354.144 394.219
340.772 350.562 400.987
339.796 350.762 405.839
344.758 359.336 390.387
349.319 345.514 378.813
347.579 345.248 393.382
347.346 349.674 386.489
347.597 353.695 396.113
353.04 346.946 399.511
349.249 347.648 407.205
346.844 347.15 415.488
352.423 359.749 386.848
360.607 342.691 398.101
357.077 353.397 381.932
362.689 348.629 385.796
357.57 348.145 391.841
356.064 354.825 397.338
359.841 356.241 389.496
366.57 346.731 392.74
373.912 349.783 396.288
370.327 351.697 406.452
368.113 355.632 392.6

POINT_DATA 31
SCALARS radius double
LOOKUP_TABLE default
5.07271
5.09809
5.0053
5.0053
5.0053
5.07271
5.02621
5.02621
5.07271
5.0053
4.12621
4.12621
5.07271
5.02621
5.07271
5.02621
5.0053
5.04636
5.04636
5.07271
5.07271
5.04636
5.08931
5.08931
5.02621
5.07271
5.07271
5.07271
5.08931
5.02621
5.07271

SCALARS status double
LOOKUP_TABLE default
1
1
1
1
1
1
1
1
1
1
1
1
1
1
1
1
1
1
1
1
1
1
1
1
1
1
1
1
1
1
1

SCALARS concentration double
LOOKUP_TABLE default
29.0073
27.7244
26.2818
29.2038
28.7415
27.6812
29.9268
30.5222
28.6278
30.2217
29.741
29.741
33.6183
30.9037
30.4638
31.6568
32.9747
32.639
31.7788
30.6782
36.0006
33.3776
35.5682
35.5682
34.4034
36.3261
38.2201
36.3764
39.921
39.8169
40.9003

SCALARS fibres double
LOOKUP_TABLE default
0
0
0
0
0
0
0
0
0
0
0
0
0
0
0
0
0
0
0
0
0
0
0
0
0
0
0
0
0
0
0

SCALARS phenot double
LOOKUP_TABLE default
7
7
7
7
7
7
7
7
7
7
7
7
7
7
7
7
7
7
7
7
7
7
7
7
7
7
7
7
7
7
7

SCALARS cont_pheno double
LOOKUP_TABLE default
0.5
0.5
0.5
0.5
0.5
0.5
0.5
0.5
0.5
0.5
0.5
0.5
0.5
0.5
0.5
0.5
0.5
0.5
0.5
0.5
0.5
0.5
0.5
0.5
0.5
0.5
0.5
0.5
0.5
0.5
0.5

SCALARS name double
LOOKUP_TABLE default
18
2
31
12
22
30
17
36
19
13
38
40
37
35
32
20
5
6
23
33
28
15
39
34
3
27
25
9
26
24
29

SCALARS interaction_phenotype double
LOOKUP_TABLE default
0
0
0
0
0
0
0
0
0
0
0
0
0
0
0
0
0
0
0
0
0
0
0
0
0
0
0
0
0
0
0

SCALARS vessel_interaction double
LOOKUP_TABLE default
0
0
0
0
0
0
0
0
0
0
0
0
0
0
0
0
0
0
0
0
0
0
0
0
0
0
0
0
0
0
0

SCALARS is_follower double
LOOKUP_TABLE default
1
1
1
1
1
1
1
1
1
1
1
1
1
1
1
1
1
1
1
1
1
1
1
1
1
1
1
1
1
1
1

SCALARS polarised double
LOOKUP_TABLE default
0
0
0
0
0
0
0
0
0
0
0
0
0
0
0
0
0
0
0
0
0
0
0
0
0
0
0
0
0
0
0

