# vtk DataFile Version 2.0
Unstructured grid legacy vtk file with point scalar data
ASCII

DATASET UNSTRUCTURED_GRID
POINTS 14 double
343.501 345.447 402.41
342.939 350.138 385.259
343.343 348.236 391.799
339.115 352.487 395.328
340.029 352.719 403.071
345.806 342.047 394.815
353.748 340.652 393.724
348.873 353.309 393.93
351.738 347.061 399.21
347.868 353.784 402.303
360.055 344.676 397.76
356.784 350.647 392.588
367.847 346.083 392.749
368.768 349.668 400.807

POINT_DATA 14
SCALARS radius double
LOOKUP_TABLE default
5.09809
4.8053
4.9053
5.0053
5.0053
5.09809
5.03728
5.04636
5.09809
5.04636
5.04636
5.04636
5.07271
5.07271

SCALARS status double
LOOKUP_TABLE default
1
1
1
1
1
1
1
1
1
1
1
1
1
1

SCALARS concentration double
LOOKUP_TABLE default
29.3603
32.7338
32.7338
32.7338
32.7338
29.6494
30.8962
32.7338
32.7334
32.7338
34.5801
34.5801
36.8292
36.8292

SCALARS fibres double
LOOKUP_TABLE default
0
0
0
0
0
0
0
0
0
0
0
0
0
0

SCALARS phenot double
LOOKUP_TABLE default
7
7
7
7
7
7
7
7
7
7
7
7
7
7

SCALARS cont_pheno double
LOOKUP_TABLE default
0.5
0.5
0.5
0.5
0.5
0.5
0.5
0.5
0.5
0.5
0.5
0.5
0.5
0.5

SCALARS name double
LOOKUP_TABLE default
12
17
19
13
18
2
8
5
6
14
15
3
9
16

SCALARS interaction_phenotype double
LOOKUP_TABLE default
0
0
0
0
0
0
0
0
0
0
0
0
0
0

SCALARS vessel_interaction double
LOOKUP_TABLE default
0
0
0
0
0
0
0
0
0
0
0
0
0
0

SCALARS is_follower double
LOOKUP_TABLE default
1
1
1
1
1
1
1
1
1
1
1
1
1
1

SCALARS polarised double
LOOKUP_TABLE default
0
0
0
0
0
0
0
0
0
0
0
0
0
0

