# vtk DataFile Version 2.0
Unstructured grid legacy vtk file with point scalar data
ASCII

DATASET UNSTRUCTURED_GRID
POINTS 31 double
334.621 355.17 403.542
345.717 337.333 394.846
339.396 337.132 400.151
345.595 343.075 401.157
341.261 345.514 408.356
339.427 343.374 417.094
340.948 351.384 383.291
340.19 354.835 376.335
340.368 346.719 390.027
339.792 354.142 394.525
340.02 351.556 401.736
345.503 358.926 391.023
349.173 345.376 378.749
347.699 345.817 393.506
348.102 349.169 386.069
347.724 353.337 395.568
353.147 347.147 399.474
349.309 347.608 407.207
347.013 346.694 415.3
351.567 359.951 387.63
360.612 343.188 397.869
358.143 352.612 382.404
361.743 349.347 385.612
357.694 348.253 391.95
355.885 354.751 397.281
360.422 356.189 389.692
366.359 346.934 391.839
366.059 350.645 399.097
373.879 349.474 395.961
369.927 352.099 406.625
368.215 355.655 393.033

POINT_DATA 31
SCALARS radius double
LOOKUP_TABLE default
4.47271
5.09809
5.0053
5.0053
5.0053
5.07271
5.02621
5.02621
5.07271
5.0053
4.47271
4.67271
5.02621
5.07271
5.02621
5.0053
5.04636
5.04636
5.07271
4.57271
5.04636
4.18931
4.08931
5.02621
5.07271
5.07271
5.07271
5.08931
5.08931
5.02621
5.07271

SCALARS status double
LOOKUP_TABLE default
1
1
1
1
1
1
1
1
1
1
1
1
1
1
1
1
1
1
1
1
1
1
1
1
1
1
1
1
1
1
1

SCALARS concentration double
LOOKUP_TABLE default
29.0073
27.7244
26.2818
29.2038
28.7415
27.6812
29.9268
30.5222
28.6278
30.2217
29.741
33.6183
30.9037
30.4638
31.6568
32.9747
32.639
31.7788
30.6782
36.0006
33.3776
35.5682
35.5682
34.4034
36.3261
38.2201
36.3764
37.8303
39.921
39.8169
40.9003

SCALARS fibres double
LOOKUP_TABLE default
0
0
0
0
0
0
0
0
0
0
0
0
0
0
0
0
0
0
0
0
0
0
0
0
0
0
0
0
0
0
0

SCALARS phenot double
LOOKUP_TABLE default
7
7
7
7
7
7
7
7
7
7
7
7
7
7
7
7
7
7
7
7
7
7
7
7
7
7
7
7
7
7
7

SCALARS cont_pheno double
LOOKUP_TABLE default
0.5
0.5
0.5
0.5
0.5
0.5
0.5
0.5
0.5
0.5
0.5
0.5
0.5
0.5
0.5
0.5
0.5
0.5
0.5
0.5
0.5
0.5
0.5
0.5
0.5
0.5
0.5
0.5
0.5
0.5
0.5

SCALARS name double
LOOKUP_TABLE default
18
2
31
12
22
30
17
36
19
13
38
37
35
32
20
5
6
23
33
28
15
39
34
3
27
25
9
16
26
24
29

SCALARS interaction_phenotype double
LOOKUP_TABLE default
0
0
0
0
0
0
0
0
0
0
0
0
0
0
0
0
0
0
0
0
0
0
0
0
0
0
0
0
0
0
0

SCALARS vessel_interaction double
LOOKUP_TABLE default
0
0
0
0
0
0
0
0
0
0
0
0
0
0
0
0
0
0
0
0
0
0
0
0
0
0
0
0
0
0
0

SCALARS is_follower double
LOOKUP_TABLE default
1
1
1
1
1
1
1
1
1
1
1
1
1
1
1
1
1
1
1
1
1
1
1
1
1
1
1
1
1
1
1

SCALARS polarised double
LOOKUP_TABLE default
0
0
0
0
0
0
0
0
0
0
0
0
0
0
0
0
0
0
0
0
0
0
0
0
0
0
0
0
0
0
0

