# vtk DataFile Version 3.0
Fibres output - vtk 
ASCII
DATASET UNSTRUCTURED_GRID
POINTS 0 double
CELLS 0 0
CELL_TYPES 0
CELL_DATA  0
SCALARS length float
LOOKUP_TABLE default
SCALARS fibre_name double
LOOKUP_TABLE default
SCALARS fibre_crosslinks double
LOOKUP_TABLE default
SCALARS fibre_exists double
LOOKUP_TABLE default
VECTORS orientation double
SCALARS fibre_radius double
LOOKUP_TABLE default
