# vtk DataFile Version 2.0
Unstructured grid legacy vtk file with point scalar data
ASCII

DATASET UNSTRUCTURED_GRID
POINTS 9 double
342.729 345.352 401.651
354.377 340.957 394.617
346.506 343.391 394.589
348.397 351.495 393.688
351.95 347.407 400.351
356.631 349.379 393.316
362.723 352.201 399.318
357.685 357.853 395.228
367.45 346.873 394.99

POINT_DATA 9
SCALARS radius double
LOOKUP_TABLE default
5.09809
5.03728
5.09809
5.03728
5.09809
5.09809
5.0053
5.04636
5.0053

SCALARS status double
LOOKUP_TABLE default
1
1
1
1
1
1
1
1
1

SCALARS concentration double
LOOKUP_TABLE default
29.3603
30.8962
29.6494
32.7338
32.7334
34.5801
37.5025
38.3329
36.8292

SCALARS fibres double
LOOKUP_TABLE default
0
0
0
0
0
0
0
0
0

SCALARS phenot double
LOOKUP_TABLE default
7
7
7
7
7
7
7
7
7

SCALARS cont_pheno double
LOOKUP_TABLE default
0.5
0.5
0.5
0.5
0.5
0.5
0.5
0.5
0.5

SCALARS name double
LOOKUP_TABLE default
12
8
2
5
6
3
11
7
9

SCALARS interaction_phenotype double
LOOKUP_TABLE default
0
0
0
0
0
0
0
0
0

SCALARS vessel_interaction double
LOOKUP_TABLE default
0
0
0
0
0
0
0
0
0

SCALARS is_follower double
LOOKUP_TABLE default
1
1
1
1
1
1
1
1
1

SCALARS polarised double
LOOKUP_TABLE default
0
0
0
0
0
0
0
0
0

