# vtk DataFile Version 2.0
Unstructured grid legacy vtk file with point scalar data
ASCII

DATASET UNSTRUCTURED_GRID
POINTS 16 double
345.69 341.045 394.891
343.764 344.932 402.39
340.054 351.306 383.986
343.395 347.572 390.624
338.585 352.67 395.15
339.313 353.575 403.623
353.953 340.277 393.677
348.518 349.323 384.332
348.621 353.991 393.969
345.868 351.089 401.644
351.55 346.914 398.932
350.027 354.755 402.146
360.174 344.817 397.307
356.846 351.266 393.096
367.546 345.958 392.9
368.324 350.139 400.696

POINT_DATA 16
SCALARS radius double
LOOKUP_TABLE default
5.09809
5.09809
5.07271
5.0053
5.0053
5.0053
5.03728
5.07271
5.04636
4.4053
5.09809
4.3053
5.04636
5.04636
5.07271
5.07271

SCALARS status double
LOOKUP_TABLE default
1
1
1
1
1
1
1
1
1
1
1
1
1
1
1
1

SCALARS concentration double
LOOKUP_TABLE default
29.6494
29.3603
32.7338
32.7338
32.7338
32.7338
30.8962
32.7338
32.7338
32.7338
32.7334
32.7338
34.5801
34.5801
36.8292
36.8292

SCALARS fibres double
LOOKUP_TABLE default
0
0
0
0
0
0
0
0
0
0
0
0
0
0
0
0

SCALARS phenot double
LOOKUP_TABLE default
7
7
7
7
7
7
7
7
7
7
7
7
7
7
7
7

SCALARS cont_pheno double
LOOKUP_TABLE default
0.5
0.5
0.5
0.5
0.5
0.5
0.5
0.5
0.5
0.5
0.5
0.5
0.5
0.5
0.5
0.5

SCALARS name double
LOOKUP_TABLE default
2
12
17
19
13
18
8
20
5
21
6
14
15
3
9
16

SCALARS interaction_phenotype double
LOOKUP_TABLE default
0
0
0
0
0
0
0
0
0
0
0
0
0
0
0
0

SCALARS vessel_interaction double
LOOKUP_TABLE default
0
0
0
0
0
0
0
0
0
0
0
0
0
0
0
0

SCALARS is_follower double
LOOKUP_TABLE default
1
1
1
1
1
1
1
1
1
1
1
1
1
1
1
1

SCALARS polarised double
LOOKUP_TABLE default
0
0
0
0
0
0
0
0
0
0
0
0
0
0
0
0

