# vtk DataFile Version 2.0
Unstructured grid legacy vtk file with point scalar data
ASCII

DATASET UNSTRUCTURED_GRID
POINTS 71 double
333.88 336.435 384.905
335.342 337.98 392.909
328.522 339.158 391.624
334.235 337.223 400.583
332.382 343.806 405.628
334.774 354.608 404.051
327.435 355.513 396.444
329.036 360.748 402.669
342.155 335.002 393.604
340.562 331.578 402.488
337.616 344.785 396.766
341.906 339.086 400.368
343.237 344.687 414.29
341.088 344.497 405.762
337.877 338.746 416.978
340.377 355.498 372.85
340.69 347.112 385.044
336.659 349.045 377.739
345.62 351.626 391.178
339.913 353.126 397.106
343.33 353.103 404.973
337.788 350.198 410.909
336.499 346.867 418.932
339.079 355.99 381.427
342.917 359.837 391.665
336.43 360.993 397.753
351.336 345.522 376.903
349.179 344.141 391.44
351.892 345.635 414.221
347.57 340.067 426.951
349.34 348.751 384.49
354.234 354.228 393.417
345.838 347.468 398.864
346.905 351.711 417.504
346.347 348.571 425.859
350.215 357.593 388.973
346.879 370.245 379.417
353.001 368.093 384.629
349.181 374.874 386.701
347.87 366.62 391.604
359.764 339.754 387.71
365.069 345.203 394.871
360.483 338.187 396.148
361.055 343.146 402.747
358.229 350.476 375.556
362.564 347.193 381.815
361.663 349.964 388.857
362.185 353.89 393.924
363.169 353.276 399.122
357.417 348.229 396.751
361.649 350.548 408.892
355.876 360.691 384.591
361.085 359.102 390.376
357.718 360.975 397.705
362.725 358.045 404.272
358.217 358.35 411.277
362.751 367.214 393.225
363.975 366.38 402.068
374.338 343.432 400.668
368.996 353.129 379.964
369.445 348.259 387.176
368.978 355.15 394.023
372.459 349.718 395.249
366.049 348.145 401.429
370.768 355.231 401.299
370.915 347.913 405.346
374.651 353.329 408.356
369.112 357.714 387.012
366.334 360.874 397.005
376.472 342.866 393.02
375.421 357.209 392.427

POINT_DATA 71
SCALARS radius double
LOOKUP_TABLE default
5.03939
4.59976
4.59976
4.98931
5.02621
5.02621
5.08931
5.08931
5.08931
5.02621
5.03939
4.98931
5.02621
5.09976
5.02621
5.08931
5.08931
5.08931
5.0053
5.03939
5.08931
5.09976
5.09976
5.08931
5.07271
5.02621
5.02621
5.07271
5.08931
5.03939
5.02621
4.83939
5.09976
5.09976
5.09976
4.83939
5.03939
5.08931
5.03939
5.08931
5.07271
5.07271
5.07271
5.0053
5.03939
5.03939
5.03939
4.54768
4.64768
5.09976
5.09976
5.08931
5.07271
5.08931
5.03939
5.03939
5.04768
5.04768
4.96831
5.09976
5.08931
4.60635
5.03939
4.54768
5.03939
4.54768
5.03939
5.09976
5.04768
5.06831
4.70635

SCALARS status double
LOOKUP_TABLE default
1
1
1
1
1
1
1
1
1
1
1
1
1
1
1
1
1
1
1
1
1
1
1
1
1
1
1
1
1
1
1
1
1
1
1
1
1
1
1
1
1
1
1
1
1
1
1
1
1
1
1
1
1
1
1
1
1
1
1
1
1
1
1
1
1
1
1
1
1
1
1

SCALARS concentration double
LOOKUP_TABLE default
25.7024
25.7024
25.7024
26.1829
26.1829
28.4181
27.3863
27.3863
25.7024
25.7024
29.0396
26.1829
28.6749
29.0559
25.7264
30.4559
29.6601
29.6601
31.7036
29.0396
31.2761
28.7305
28.7305
30.4559
33.3889
30.4545
31.3083
30.4978
31.723
31.723
31.4686
35.1081
30.5584
31.723
31.723
35.1081
37.0699
37.9708
37.0699
37.0699
31.2588
35.7837
31.2588
33.5749
34.3697
35.6946
35.6946
37.8382
37.8382
37.8382
37.4082
37.9708
38.263
39.2408
41.2122
38.3931
42.8656
42.8656
36.416
41.981
37.7898
42.8656
40.2552
37.4082
41.3845
37.4082
41.3845
41.981
42.8656
36.416
42.8656

SCALARS fibres double
LOOKUP_TABLE default
0
0
0
0
0
0
0
0
0
0
0
0
0
0
0
0
0
0
0
0
0
0
0
0
0
0
0
0
0
0
0
0
0
0
0
0
0
0
0
0
0
0
0
0
0
0
0
0
0
0
0
0
0
0
0
0
0
0
0
0
0
0
0
0
0
0
0
0
0
0
0

SCALARS phenot double
LOOKUP_TABLE default
7
7
7
7
7
7
7
7
7
7
7
7
7
7
7
7
7
7
7
7
7
7
7
7
7
7
7
7
7
7
7
7
7
7
7
7
7
7
7
7
7
7
7
7
7
7
7
7
7
7
7
7
7
7
7
7
7
7
7
7
7
7
7
7
7
7
7
7
7
7
7

SCALARS cont_pheno double
LOOKUP_TABLE default
0.5
0.5
0.5
0.5
0.5
0.5
0.5
0.5
0.5
0.5
0.5
0.5
0.5
0.5
0.5
0.5
0.5
0.5
0.5
0.5
0.5
0.5
0.5
0.5
0.5
0.5
0.5
0.5
0.5
0.5
0.5
0.5
0.5
0.5
0.5
0.5
0.5
0.5
0.5
0.5
0.5
0.5
0.5
0.5
0.5
0.5
0.5
0.5
0.5
0.5
0.5
0.5
0.5
0.5
0.5
0.5
0.5
0.5
0.5
0.5
0.5
0.5
0.5
0.5
0.5
0.5
0.5
0.5
0.5
0.5
0.5

SCALARS name double
LOOKUP_TABLE default
69
76
93
80
52
18
43
83
64
31
67
90
45
57
59
36
17
88
5
47
62
53
67
65
37
13
35
32
33
73
20
27
38
81
64
91
78
86
72
60
69
9
55
15
39
34
77
94
46
84
58
28
25
49
41
61
79
70
50
82
48
87
26
74
75
95
24
29
56
89
92

SCALARS interaction_phenotype double
LOOKUP_TABLE default
0
0
0
0
0
0
0
0
0
0
0
0
0
0
0
0
0
0
0
0
0
0
0
0
0
0
0
0
0
0
0
0
0
0
0
0
0
0
0
0
0
0
0
0
0
0
0
0
0
0
0
0
0
0
0
0
0
0
0
0
0
0
0
0
0
0
0
0
0
0
0

SCALARS vessel_interaction double
LOOKUP_TABLE default
0
0
0
0
0
0
0
0
0
0
0
0
0
0
0
0
0
0
0
0
0
0
0
0
0
0
0
0
0
0
0
0
0
0
0
0
0
0
0
0
0
0
0
0
0
0
0
0
0
0
0
0
0
0
0
0
0
0
0
0
0
0
0
0
0
0
0
0
0
0
0

SCALARS is_follower double
LOOKUP_TABLE default
1
1
1
1
1
1
1
1
1
1
1
1
1
1
1
1
1
1
1
1
1
1
1
1
1
1
1
1
1
1
1
1
1
1
1
1
1
1
1
1
1
1
1
1
1
1
1
1
1
1
1
1
1
1
1
1
1
1
1
1
1
1
1
1
1
1
1
1
1
1
1

SCALARS polarised double
LOOKUP_TABLE default
0
0
0
0
0
0
0
0
0
0
0
0
0
0
0
0
0
0
0
0
0
0
0
0
0
0
0
0
0
0
0
0
0
0
0
0
0
0
0
0
0
0
0
0
0
0
0
0
0
0
0
0
0
0
0
0
0
0
0
0
0
0
0
0
0
0
0
0
0
0
0

