# vtk DataFile Version 2.0
Unstructured grid legacy vtk file with point scalar data
ASCII

DATASET UNSTRUCTURED_GRID
POINTS 9 double
353.903 341.368 395.54
346.141 344.799 397.158
349.089 351.918 393.593
352.502 347.906 400.094
357.039 349.309 393.125
356.633 353.005 402.138
362.291 352.067 398.451
358.896 358.007 396.054
366.257 348.367 395.768

POINT_DATA 9
SCALARS radius double
LOOKUP_TABLE default
5.03728
5.03728
5.03728
4.89809
5.09809
4.89809
4.5053
5.04636
4.4053

SCALARS status double
LOOKUP_TABLE default
1
1
1
1
1
1
1
1
1

SCALARS concentration double
LOOKUP_TABLE default
29.9799
29.9799
32.6587
33.2529
34.3421
33.2529
36.8748
36.8748
36.8748

SCALARS fibres double
LOOKUP_TABLE default
0
0
0
0
0
0
0
0
0

SCALARS phenot double
LOOKUP_TABLE default
7
7
7
7
7
7
7
7
7

SCALARS cont_pheno double
LOOKUP_TABLE default
0.5
0.5
0.5
0.5
0.5
0.5
0.5
0.5
0.5

SCALARS name double
LOOKUP_TABLE default
8
2
5
6
3
10
11
7
9

SCALARS interaction_phenotype double
LOOKUP_TABLE default
0
0
0
0
0
0
0
0
0

SCALARS vessel_interaction double
LOOKUP_TABLE default
0
0
0
0
0
0
0
0
0

SCALARS is_follower double
LOOKUP_TABLE default
1
1
1
1
1
1
1
1
1

SCALARS polarised double
LOOKUP_TABLE default
0
0
0
0
0
0
0
0
0

