# vtk DataFile Version 2.0
Unstructured grid legacy vtk file with point scalar data
ASCII

DATASET UNSTRUCTURED_GRID
POINTS 32 double
334.555 354.938 403.827
330.436 357.687 399.488
339.62 338.296 400.873
339.725 342.341 416.47
339.75 354.803 375.364
340.391 351.766 382.659
340.677 347.421 390.028
339.083 354.773 394.213
340.852 349.244 400.467
339.523 352.047 408.12
345.497 358.659 390.689
350.319 345.571 378.722
348.321 344.73 393.475
345.886 336.897 395.263
348.309 348.806 385.804
346.982 352.603 395.969
353.079 347.448 399.694
354.629 355.109 396.367
349.448 347.915 407.504
347.108 346.731 415.47
352.537 360.273 386.473
360.013 342.698 398.314
356.677 353.547 381.652
362.752 348.767 385.852
357.183 348.219 392.372
359.451 355.755 389.326
361.492 357.602 400.348
365.607 346.569 393.224
367.095 354.291 391.415
372.838 349.432 396.528
370.658 352.206 406.647
372.554 357.662 395.969

POINT_DATA 32
SCALARS radius double
LOOKUP_TABLE default
4.52621
4.52621
5.0053
5.07271
5.02621
5.02621
5.07271
5.0053
5.02621
5.02621
5.07271
5.02621
5.07271
5.09809
5.02621
5.0053
5.04636
5.02621
5.04636
5.07271
5.07271
5.04636
5.08931
5.08931
5.02621
5.07271
5.02621
5.07271
5.02621
5.08931
5.02621
5.02621

SCALARS status double
LOOKUP_TABLE default
1
1
1
1
1
1
1
1
1
1
1
1
1
1
1
1
1
1
1
1
1
1
1
1
1
1
1
1
1
1
1
1

SCALARS concentration double
LOOKUP_TABLE default
29.0073
29.0073
26.2818
27.6812
30.5222
29.9268
28.6278
30.2217
29.741
29.741
33.6183
30.9037
30.4638
27.7244
31.6568
32.9747
32.639
36.3261
31.7788
30.6782
36.0006
33.3776
35.5682
35.5682
34.4034
38.2201
36.3261
36.3764
40.9003
39.921
39.8169
40.9003

SCALARS fibres double
LOOKUP_TABLE default
0
0
0
0
0
0
0
0
0
0
0
0
0
0
0
0
0
0
0
0
0
0
0
0
0
0
0
0
0
0
0
0

SCALARS phenot double
LOOKUP_TABLE default
7
7
7
7
7
7
7
7
7
7
7
7
7
7
7
7
7
7
7
7
7
7
7
7
7
7
7
7
7
7
7
7

SCALARS cont_pheno double
LOOKUP_TABLE default
0.5
0.5
0.5
0.5
0.5
0.5
0.5
0.5
0.5
0.5
0.5
0.5
0.5
0.5
0.5
0.5
0.5
0.5
0.5
0.5
0.5
0.5
0.5
0.5
0.5
0.5
0.5
0.5
0.5
0.5
0.5
0.5

SCALARS name double
LOOKUP_TABLE default
18
43
31
30
36
17
19
13
38
40
37
35
32
2
20
5
6
27
23
33
28
15
39
34
3
25
41
9
29
26
24
42

SCALARS interaction_phenotype double
LOOKUP_TABLE default
0
0
0
0
0
0
0
0
0
0
0
0
0
0
0
0
0
0
0
0
0
0
0
0
0
0
0
0
0
0
0
0

SCALARS vessel_interaction double
LOOKUP_TABLE default
0
0
0
0
0
0
0
0
0
0
0
0
0
0
0
0
0
0
0
0
0
0
0
0
0
0
0
0
0
0
0
0

SCALARS is_follower double
LOOKUP_TABLE default
1
1
1
1
1
1
1
1
1
1
1
1
1
1
1
1
1
1
1
1
1
1
1
1
1
1
1
1
1
1
1
1

SCALARS polarised double
LOOKUP_TABLE default
0
0
0
0
0
0
0
0
0
0
0
0
0
0
0
0
0
0
0
0
0
0
0
0
0
0
0
0
0
0
0
0

