# vtk DataFile Version 2.0
Unstructured grid legacy vtk file with point scalar data
ASCII

DATASET UNSTRUCTURED_GRID
POINTS 48 double
334.301 341.628 403.527
333.911 353.51 404.276
328.995 357.257 398.916
338.811 335.782 398.719
343.109 343.546 413.575
339.175 344.336 421.525
337.93 336.622 417.225
339.5 355.538 375.392
340.575 350.105 381.828
341.011 346.011 389.978
338.71 354.071 388.603
338.939 350.782 397.196
341.244 346.108 404.781
342.1 354.587 404.552
337.587 349.906 411.172
344.276 359.975 390.68
336.272 359.144 394.624
341.047 357.969 412.843
351.093 344.957 377.918
349.446 343.492 391.724
346.879 336.297 395.691
345.907 351.831 392.79
348.225 348.785 385.512
353.892 353.712 395.327
347.158 346.667 399.186
348.709 347.123 408.422
350.247 347.29 417.259
355.161 361.956 387.448
348.612 367.148 388.788
359.25 338.826 394.472
359.848 344.865 400.194
357.95 349.768 377.301
361.027 349.552 384.82
357.673 346.763 391.78
362.536 352.334 396.986
363.475 350.841 404.886
360.086 356.156 390.394
358.949 360.702 398.118
364.827 359.269 404.343
357.761 358.868 409.381
365.86 345.521 393.796
372.495 343.54 398.646
369.348 349.142 387.219
371.324 351.88 395.319
371.395 353.659 403.305
369.089 357.141 388.735
366.669 359.301 396.202
375.267 359.8 398.401

POINT_DATA 48
SCALARS radius double
LOOKUP_TABLE default
5.07271
5.02621
5.02621
5.07271
5.02621
5.02621
5.02621
5.02621
5.02621
5.07271
5.07271
5.08931
5.09976
5.08931
5.03939
5.07271
5.07271
5.08931
5.02621
5.07271
5.09809
5.0053
5.02621
5.08931
5.09976
5.04636
5.02621
5.02621
5.02621
5.0053
5.0053
5.03939
5.08931
5.02621
5.03939
5.03939
5.07271
5.08931
5.03939
5.03939
5.07271
5.03939
5.08931
5.03939
5.08931
5.03939
5.03939
5.02621

SCALARS status double
LOOKUP_TABLE default
1
1
1
1
1
1
1
1
1
1
1
1
1
1
1
1
1
1
1
1
1
1
1
1
1
1
1
1
1
1
1
1
1
1
1
1
1
1
1
1
1
1
1
1
1
1
1
1

SCALARS concentration double
LOOKUP_TABLE default
26.1829
28.4181
27.3863
25.7024
28.6749
27.6543
25.7264
30.4559
29.6601
28.6498
29.9508
29.0396
29.0559
31.2761
28.7305
33.3889
30.4545
31.7221
31.3083
30.4978
27.6916
31.7036
31.4686
35.1081
30.5584
31.481
31.723
37.9708
37.0699
31.2588
33.5749
34.3697
35.6946
33.9412
37.8382
37.4082
38.263
39.2408
41.2122
38.3931
35.7837
36.416
37.7898
40.2552
41.3845
41.981
42.8656
46.4653

SCALARS fibres double
LOOKUP_TABLE default
0
0
0
0
0
0
0
0
0
0
0
0
0
0
0
0
0
0
0
0
0
0
0
0
0
0
0
0
0
0
0
0
0
0
0
0
0
0
0
0
0
0
0
0
0
0
0
0

SCALARS phenot double
LOOKUP_TABLE default
7
7
7
7
7
7
7
7
7
7
7
7
7
7
7
7
7
7
7
7
7
7
7
7
7
7
7
7
7
7
7
7
7
7
7
7
7
7
7
7
7
7
7
7
7
7
7
7

SCALARS cont_pheno double
LOOKUP_TABLE default
0.5
0.5
0.5
0.5
0.5
0.5
0.5
0.5
0.5
0.5
0.5
0.5
0.5
0.5
0.5
0.5
0.5
0.5
0.5
0.5
0.5
0.5
0.5
0.5
0.5
0.5
0.5
0.5
0.5
0.5
0.5
0.5
0.5
0.5
0.5
0.5
0.5
0.5
0.5
0.5
0.5
0.5
0.5
0.5
0.5
0.5
0.5
0.5

SCALARS name double
LOOKUP_TABLE default
52
18
43
31
45
30
59
36
17
19
51
47
57
62
53
37
13
40
35
32
2
5
20
27
38
23
33
28
60
55
15
39
34
3
46
58
25
49
41
61
9
50
48
26
24
29
56
42

SCALARS interaction_phenotype double
LOOKUP_TABLE default
0
0
0
0
0
0
0
0
0
0
0
0
0
0
0
0
0
0
0
0
0
0
0
0
0
0
0
0
0
0
0
0
0
0
0
0
0
0
0
0
0
0
0
0
0
0
0
0

SCALARS vessel_interaction double
LOOKUP_TABLE default
0
0
0
0
0
0
0
0
0
0
0
0
0
0
0
0
0
0
0
0
0
0
0
0
0
0
0
0
0
0
0
0
0
0
0
0
0
0
0
0
0
0
0
0
0
0
0
0

SCALARS is_follower double
LOOKUP_TABLE default
1
1
1
1
1
1
1
1
1
1
1
1
1
1
1
1
1
1
1
1
1
1
1
1
1
1
1
1
1
1
1
1
1
1
1
1
1
1
1
1
1
1
1
1
1
1
1
1

SCALARS polarised double
LOOKUP_TABLE default
0
0
0
0
0
0
0
0
0
0
0
0
0
0
0
0
0
0
0
0
0
0
0
0
0
0
0
0
0
0
0
0
0
0
0
0
0
0
0
0
0
0
0
0
0
0
0
0

