# vtk DataFile Version 2.0
Unstructured grid legacy vtk file with point scalar data
ASCII

DATASET UNSTRUCTURED_GRID
POINTS 64 double
334.924 336.736 385.511
333.799 337.912 393.426
335.596 338.371 400.463
332.343 343.142 405.147
334.664 355.288 403.75
327.991 356.8 397.168
330.31 359.677 401.318
341.978 335.478 393.8
339.83 332.615 402.515
337.784 345.238 397.343
343.368 344.116 413.908
340.89 344.828 405.711
337.635 338.841 416.995
341.022 355.046 372.613
340.651 348.061 382.621
337.942 353.264 388.555
345.651 351.866 392.003
339.358 353.56 397.005
342.822 353.143 404.539
337.843 350.533 410.91
337.625 347.444 418.949
338.821 356.793 380.934
342.847 359.799 391.554
336.614 361.421 397.078
351.332 345.592 377.816
348.932 344.011 391.813
347.326 341.372 425.558
348.604 349.256 384.78
354.136 353.589 394.172
345.955 347.743 399.176
351.69 346.367 415.474
347.155 351.601 418.755
346.764 348.949 424.991
354.896 363.466 385.493
347.55 370.267 378.457
349.701 373.284 385.997
348.452 366.412 390.642
359.31 338.75 387.81
356.744 345.164 392.935
365.318 344.791 394.69
360.245 338.028 396.185
359.218 344.988 401.297
357.969 350.822 376.118
362.134 348.974 382.562
362.191 350.715 390.161
362.959 353.25 397.033
358.596 350.04 397.423
362.421 351.001 409.132
360.058 358.229 390.046
358.059 360.136 397.96
362.909 357.987 403.82
358.411 358.266 410.345
363.348 366.36 393.933
364.354 365.536 401.704
372.935 343.83 399.025
368.205 353.846 382.328
369.744 348.026 387.157
370.999 351.554 394.412
366.993 347.787 402.552
369.545 355.418 401.414
374.179 352.99 407.428
368.86 356.932 388.436
366.413 359.165 395.372
376.319 359.283 398.998

POINT_DATA 64
SCALARS radius double
LOOKUP_TABLE default
5.03939
5.03939
4.92621
4.82621
5.02621
4.18931
4.18931
5.08931
5.02621
5.03939
5.02621
5.09976
5.02621
5.08931
5.02621
5.07271
5.0053
5.03939
5.08931
5.09976
5.09976
5.08931
5.07271
5.02621
5.02621
5.07271
5.03939
5.02621
5.08931
5.09976
5.08931
4.69976
4.59976
5.02621
5.03939
5.03939
5.08931
5.07271
5.02621
5.07271
5.07271
5.0053
5.03939
5.03939
5.03939
4.19976
4.19976
5.09976
5.07271
5.08931
5.03939
5.03939
5.04768
4.94768
5.03939
4.49976
5.08931
5.03939
5.09976
5.03939
5.03939
4.59976
5.09976
5.02621

SCALARS status double
LOOKUP_TABLE default
1
1
1
1
1
1
1
1
1
1
1
1
1
1
1
1
1
1
1
1
1
1
1
1
1
1
1
1
1
1
1
1
1
1
1
1
1
1
1
1
1
1
1
1
1
1
1
1
1
1
1
1
1
1
1
1
1
1
1
1
1
1
1
1

SCALARS concentration double
LOOKUP_TABLE default
25.7024
25.7024
26.1829
26.1829
28.4181
27.3863
27.3863
25.7024
25.7024
29.0396
28.6749
29.0559
25.7264
30.4559
29.6601
29.9508
31.7036
29.0396
31.2761
28.7305
28.7305
30.4559
33.3889
30.4545
31.3083
30.4978
31.723
31.4686
35.1081
30.5584
31.723
31.723
31.723
37.9708
37.0699
37.0699
37.0699
31.2588
33.9412
35.7837
31.2588
33.5749
34.3697
35.6946
35.6946
37.8382
37.8382
37.4082
38.263
39.2408
41.2122
38.3931
42.8656
42.8656
36.416
41.981
37.7898
40.2552
37.4082
41.3845
41.3845
41.981
42.8656
46.4653

SCALARS fibres double
LOOKUP_TABLE default
0
0
0
0
0
0
0
0
0
0
0
0
0
0
0
0
0
0
0
0
0
0
0
0
0
0
0
0
0
0
0
0
0
0
0
0
0
0
0
0
0
0
0
0
0
0
0
0
0
0
0
0
0
0
0
0
0
0
0
0
0
0
0
0

SCALARS phenot double
LOOKUP_TABLE default
7
7
7
7
7
7
7
7
7
7
7
7
7
7
7
7
7
7
7
7
7
7
7
7
7
7
7
7
7
7
7
7
7
7
7
7
7
7
7
7
7
7
7
7
7
7
7
7
7
7
7
7
7
7
7
7
7
7
7
7
7
7
7
7

SCALARS cont_pheno double
LOOKUP_TABLE default
0.5
0.5
0.5
0.5
0.5
0.5
0.5
0.5
0.5
0.5
0.5
0.5
0.5
0.5
0.5
0.5
0.5
0.5
0.5
0.5
0.5
0.5
0.5
0.5
0.5
0.5
0.5
0.5
0.5
0.5
0.5
0.5
0.5
0.5
0.5
0.5
0.5
0.5
0.5
0.5
0.5
0.5
0.5
0.5
0.5
0.5
0.5
0.5
0.5
0.5
0.5
0.5
0.5
0.5
0.5
0.5
0.5
0.5
0.5
0.5
0.5
0.5
0.5
0.5

SCALARS name double
LOOKUP_TABLE default
69
76
80
52
18
43
83
64
31
67
45
57
59
36
17
51
5
47
62
53
67
65
37
13
35
32
73
20
27
38
33
81
64
28
78
72
60
69
3
9
55
15
39
34
77
46
84
58
25
49
41
61
79
70
50
82
48
26
74
75
24
29
56
42

SCALARS interaction_phenotype double
LOOKUP_TABLE default
0
0
0
0
0
0
0
0
0
0
0
0
0
0
0
0
0
0
0
0
0
0
0
0
0
0
0
0
0
0
0
0
0
0
0
0
0
0
0
0
0
0
0
0
0
0
0
0
0
0
0
0
0
0
0
0
0
0
0
0
0
0
0
0

SCALARS vessel_interaction double
LOOKUP_TABLE default
0
0
0
0
0
0
0
0
0
0
0
0
0
0
0
0
0
0
0
0
0
0
0
0
0
0
0
0
0
0
0
0
0
0
0
0
0
0
0
0
0
0
0
0
0
0
0
0
0
0
0
0
0
0
0
0
0
0
0
0
0
0
0
0

SCALARS is_follower double
LOOKUP_TABLE default
1
1
1
1
1
1
1
1
1
1
1
1
1
1
1
1
1
1
1
1
1
1
1
1
1
1
1
1
1
1
1
1
1
1
1
1
1
1
1
1
1
1
1
1
1
1
1
1
1
1
1
1
1
1
1
1
1
1
1
1
1
1
1
1

SCALARS polarised double
LOOKUP_TABLE default
0
0
0
0
0
0
0
0
0
0
0
0
0
0
0
0
0
0
0
0
0
0
0
0
0
0
0
0
0
0
0
0
0
0
0
0
0
0
0
0
0
0
0
0
0
0
0
0
0
0
0
0
0
0
0
0
0
0
0
0
0
0
0
0

