# vtk DataFile Version 2.0
Unstructured grid legacy vtk file with point scalar data
ASCII

DATASET UNSTRUCTURED_GRID
POINTS 53 double
335.304 337.887 387.861
333.475 341.253 403.473
334.398 354.97 403.467
333.089 358.248 391.261
329.024 357.074 397.687
340.618 335.324 393.519
338.872 334.995 401.462
337.881 344.991 397.358
343.383 343.724 413.577
341.285 344.835 405.643
337.54 337.548 417.166
340.74 348.705 382.669
338.772 354.048 388.831
339.466 352.823 397.189
342.864 353.873 404.607
337.605 350.724 410.106
337.494 348.26 418.309
340.541 355.717 372.841
337.813 356.623 380.946
343.541 360.792 390.937
336.32 360.993 395.361
351.245 345.643 377.816
349.642 344.443 391.996
349.177 348.95 384.978
346.028 351.903 392.074
353.928 353.773 394.938
346.246 347.435 399.45
348.343 348.251 408.006
351.338 347.865 415.923
347.266 346.984 423.386
354.993 362.437 386.643
348.271 367.875 388.903
359.371 338.995 387.736
365.442 345.37 394.074
359.866 338.064 395.976
359.682 345.003 400.294
357.871 350.819 376.924
360.694 350.074 385.101
357.765 346.283 392.414
362.718 352.663 397.515
363.799 350.304 405.159
360.6 356.598 390.307
357.967 359.897 398.317
364.738 358.304 404.134
364.288 363.371 398.266
358.319 359.266 409.444
372.278 344.005 398.842
369.247 348.519 387.381
371.037 352.107 395.355
371.854 353.886 404.157
369.142 356.908 388.336
367.995 358.915 395.691
375.378 359.097 398.501

POINT_DATA 53
SCALARS radius double
LOOKUP_TABLE default
5.08931
5.07271
5.02621
4.22621
5.02621
5.08931
5.02621
5.03939
5.02621
5.09976
5.02621
5.02621
5.07271
5.03939
5.08931
5.09976
5.09976
5.08931
5.08931
5.07271
4.12621
5.02621
5.07271
5.02621
5.0053
5.08931
5.09976
5.04636
5.08931
5.08931
5.02621
5.02621
5.07271
5.07271
5.07271
5.0053
5.03939
5.08931
5.02621
5.03939
5.03939
5.07271
5.08931
5.03939
4.69976
5.03939
5.03939
5.08931
5.03939
5.08931
5.03939
4.79976
5.02621

SCALARS status double
LOOKUP_TABLE default
1
1
1
1
1
1
1
1
1
1
1
1
1
1
1
1
1
1
1
1
1
1
1
1
1
1
1
1
1
1
1
1
1
1
1
1
1
1
1
1
1
1
1
1
1
1
1
1
1
1
1
1
1

SCALARS concentration double
LOOKUP_TABLE default
25.7024
26.1829
28.4181
30.4545
27.3863
25.7024
25.7024
29.0396
28.6749
29.0559
25.7264
29.6601
29.9508
29.0396
31.2761
28.7305
28.7305
30.4559
30.4559
33.3889
30.4545
31.3083
30.4978
31.4686
31.7036
35.1081
30.5584
31.481
31.723
31.723
37.9708
37.0699
31.2588
35.7837
31.2588
33.5749
34.3697
35.6946
33.9412
37.8382
37.4082
38.263
39.2408
41.2122
42.8656
38.3931
36.416
37.7898
40.2552
41.3845
41.981
42.8656
46.4653

SCALARS fibres double
LOOKUP_TABLE default
0
0
0
0
0
0
0
0
0
0
0
0
0
0
0
0
0
0
0
0
0
0
0
0
0
0
0
0
0
0
0
0
0
0
0
0
0
0
0
0
0
0
0
0
0
0
0
0
0
0
0
0
0

SCALARS phenot double
LOOKUP_TABLE default
7
7
7
7
7
7
7
7
7
7
7
7
7
7
7
7
7
7
7
7
7
7
7
7
7
7
7
7
7
7
7
7
7
7
7
7
7
7
7
7
7
7
7
7
7
7
7
7
7
7
7
7
7

SCALARS cont_pheno double
LOOKUP_TABLE default
0.5
0.5
0.5
0.5
0.5
0.5
0.5
0.5
0.5
0.5
0.5
0.5
0.5
0.5
0.5
0.5
0.5
0.5
0.5
0.5
0.5
0.5
0.5
0.5
0.5
0.5
0.5
0.5
0.5
0.5
0.5
0.5
0.5
0.5
0.5
0.5
0.5
0.5
0.5
0.5
0.5
0.5
0.5
0.5
0.5
0.5
0.5
0.5
0.5
0.5
0.5
0.5
0.5

SCALARS name double
LOOKUP_TABLE default
69
52
18
71
43
64
31
67
45
57
59
17
51
47
62
53
67
36
65
37
13
35
32
20
5
27
38
23
33
64
28
60
69
9
55
15
39
34
3
46
58
25
49
41
70
61
50
48
26
24
29
56
42

SCALARS interaction_phenotype double
LOOKUP_TABLE default
0
0
0
0
0
0
0
0
0
0
0
0
0
0
0
0
0
0
0
0
0
0
0
0
0
0
0
0
0
0
0
0
0
0
0
0
0
0
0
0
0
0
0
0
0
0
0
0
0
0
0
0
0

SCALARS vessel_interaction double
LOOKUP_TABLE default
0
0
0
0
0
0
0
0
0
0
0
0
0
0
0
0
0
0
0
0
0
0
0
0
0
0
0
0
0
0
0
0
0
0
0
0
0
0
0
0
0
0
0
0
0
0
0
0
0
0
0
0
0

SCALARS is_follower double
LOOKUP_TABLE default
1
1
1
1
1
1
1
1
1
1
1
1
1
1
1
1
1
1
1
1
1
1
1
1
1
1
1
1
1
1
1
1
1
1
1
1
1
1
1
1
1
1
1
1
1
1
1
1
1
1
1
1
1

SCALARS polarised double
LOOKUP_TABLE default
0
0
0
0
0
0
0
0
0
0
0
0
0
0
0
0
0
0
0
0
0
0
0
0
0
0
0
0
0
0
0
0
0
0
0
0
0
0
0
0
0
0
0
0
0
0
0
0
0
0
0
0
0

