# vtk DataFile Version 2.0
Unstructured grid legacy vtk file with point scalar data
ASCII

DATASET UNSTRUCTURED_GRID
POINTS 49 double
335.664 342.135 404.25
334.624 354.093 404.22
328.72 357.153 398.398
338.953 335.844 398.889
343.294 343.587 413.792
338.203 343.773 420.279
337.387 337.521 417.582
341.004 350.876 381.854
340.969 346.546 389.631
338.87 354.57 389.17
345.526 352.217 393.41
338.41 350.816 397.207
341.84 346.766 403.886
338.592 348.943 409.899
341.533 354.071 406.131
339.77 355.702 374.801
344.803 359.805 390.663
336.262 359.359 395.152
341.89 357.021 410.889
351.103 345.104 378.099
349.054 344.38 392.095
346.868 336.27 395.262
348.11 349 385.658
353.407 353.963 394.898
346.136 346.586 398.369
349.005 347.346 408.403
350.16 347.826 417.075
354.676 361.599 388.174
349.23 365.245 389.128
359.138 338.177 394.735
358.665 344.661 400.053
357.602 350.008 377.153
361.417 349.739 384.832
357.246 347.287 392.178
363.169 352.94 396.532
362.616 351.757 402.78
360.418 356.246 390.474
357.928 359.734 398.796
363.568 358.428 404.693
358.757 358.444 409.029
372.273 343.768 398.62
365.529 346.258 394.285
369.852 349.287 387.313
372.152 351.472 395.481
371.985 353.864 404.135
370.182 350.95 411.88
368.368 356.833 388.441
367.461 358.848 395.822
374.988 359.85 397.775

POINT_DATA 49
SCALARS radius double
LOOKUP_TABLE default
5.07271
5.02621
5.02621
5.07271
5.02621
4.42621
4.52621
5.02621
5.07271
5.07271
5.0053
5.08931
4.89976
5.03939
4.08931
5.02621
5.07271
5.07271
4.18931
5.02621
5.07271
5.09809
5.02621
5.08931
4.89976
5.04636
5.02621
4.42621
4.42621
5.0053
5.0053
5.03939
5.08931
5.02621
4.63939
4.63939
5.07271
5.08931
4.23939
4.33939
5.03939
5.07271
5.08931
5.03939
5.08931
5.08931
5.03939
5.03939
5.02621

SCALARS status double
LOOKUP_TABLE default
1
1
1
1
1
1
1
1
1
1
1
1
1
1
1
1
1
1
1
1
1
1
1
1
1
1
1
1
1
1
1
1
1
1
1
1
1
1
1
1
1
1
1
1
1
1
1
1
1

SCALARS concentration double
LOOKUP_TABLE default
26.2818
29.0073
29.0073
26.2818
30.6782
27.6812
27.6812
29.9268
28.6278
30.2217
32.9747
29.741
29.741
29.741
29.741
30.5222
33.6183
30.2217
29.741
30.9037
30.4638
27.7244
31.6568
36.3261
29.741
31.7788
30.6782
36.0006
36.0006
33.3776
33.3776
35.5682
35.5682
34.4034
36.3261
36.3261
38.2201
36.3261
36.3261
36.3261
39.921
36.3764
40.9003
39.921
39.8169
39.8169
40.9003
40.9003
40.9003

SCALARS fibres double
LOOKUP_TABLE default
0
0
0
0
0
0
0
0
0
0
0
0
0
0
0
0
0
0
0
0
0
0
0
0
0
0
0
0
0
0
0
0
0
0
0
0
0
0
0
0
0
0
0
0
0
0
0
0
0

SCALARS phenot double
LOOKUP_TABLE default
7
7
7
7
7
7
7
7
7
7
7
7
7
7
7
7
7
7
7
7
7
7
7
7
7
7
7
7
7
7
7
7
7
7
7
7
7
7
7
7
7
7
7
7
7
7
7
7
7

SCALARS cont_pheno double
LOOKUP_TABLE default
0.5
0.5
0.5
0.5
0.5
0.5
0.5
0.5
0.5
0.5
0.5
0.5
0.5
0.5
0.5
0.5
0.5
0.5
0.5
0.5
0.5
0.5
0.5
0.5
0.5
0.5
0.5
0.5
0.5
0.5
0.5
0.5
0.5
0.5
0.5
0.5
0.5
0.5
0.5
0.5
0.5
0.5
0.5
0.5
0.5
0.5
0.5
0.5
0.5

SCALARS name double
LOOKUP_TABLE default
52
18
43
31
45
30
59
17
19
51
5
47
57
53
62
36
37
13
40
35
32
2
20
27
38
23
33
28
60
55
15
39
34
3
46
58
25
49
41
61
50
9
48
26
24
55
29
56
42

SCALARS interaction_phenotype double
LOOKUP_TABLE default
0
0
0
0
0
0
0
0
0
0
0
0
0
0
0
0
0
0
0
0
0
0
0
0
0
0
0
0
0
0
0
0
0
0
0
0
0
0
0
0
0
0
0
0
0
0
0
0
0

SCALARS vessel_interaction double
LOOKUP_TABLE default
0
0
0
0
0
0
0
0
0
0
0
0
0
0
0
0
0
0
0
0
0
0
0
0
0
0
0
0
0
0
0
0
0
0
0
0
0
0
0
0
0
0
0
0
0
0
0
0
0

SCALARS is_follower double
LOOKUP_TABLE default
1
1
1
1
1
1
1
1
1
1
1
1
1
1
1
1
1
1
1
1
1
1
1
1
1
1
1
1
1
1
1
1
1
1
1
1
1
1
1
1
1
1
1
1
1
1
1
1
1

SCALARS polarised double
LOOKUP_TABLE default
0
0
0
0
0
0
0
0
0
0
0
0
0
0
0
0
0
0
0
0
0
0
0
0
0
0
0
0
0
0
0
0
0
0
0
0
0
0
0
0
0
0
0
0
0
0
0
0
0

