# vtk DataFile Version 2.0
Unstructured grid legacy vtk file with point scalar data
ASCII

DATASET UNSTRUCTURED_GRID
POINTS 32 double
333.791 355.487 403.588
339.386 337.659 400.751
345.039 343.658 401.375
341.815 344.811 409.012
339.557 342.657 416.697
340.223 351.648 383.328
340.047 355.053 375.533
340.032 347.018 390.259
339.211 354.397 394.151
341.29 350.395 400.251
339.181 351.295 406.642
344.621 359.32 390.298
349.477 345.529 378.699
347.759 345.342 393.344
345.751 337.149 395.245
347.659 349.662 386.313
347.543 353.592 396.398
353.319 347.421 399.277
355.15 354.511 396.126
349.364 347.757 407.135
346.832 347.151 415.469
352.627 360.017 386.498
360.604 343.115 398.318
357.287 353.847 381.846
362.5 348.459 385.669
357.461 347.986 392.227
359.99 356.054 389.871
360.031 356.838 399.807
366.127 346.644 392.935
367.936 355.185 392.691
373.444 349.837 396.423
370.393 351.892 406.418

POINT_DATA 32
SCALARS radius double
LOOKUP_TABLE default
5.07271
5.0053
5.0053
5.0053
5.07271
5.02621
5.02621
5.07271
5.0053
4.62621
4.62621
5.07271
5.02621
5.07271
5.09809
5.02621
5.0053
5.04636
4.42621
5.04636
5.07271
5.07271
5.04636
5.08931
5.08931
5.02621
5.07271
4.42621
5.07271
5.07271
5.08931
5.02621

SCALARS status double
LOOKUP_TABLE default
1
1
1
1
1
1
1
1
1
1
1
1
1
1
1
1
1
1
1
1
1
1
1
1
1
1
1
1
1
1
1
1

SCALARS concentration double
LOOKUP_TABLE default
29.0073
26.2818
29.2038
28.7415
27.6812
29.9268
30.5222
28.6278
30.2217
29.741
29.741
33.6183
30.9037
30.4638
27.7244
31.6568
32.9747
32.639
36.3261
31.7788
30.6782
36.0006
33.3776
35.5682
35.5682
34.4034
38.2201
36.3261
36.3764
40.9003
39.921
39.8169

SCALARS fibres double
LOOKUP_TABLE default
0
0
0
0
0
0
0
0
0
0
0
0
0
0
0
0
0
0
0
0
0
0
0
0
0
0
0
0
0
0
0
0

SCALARS phenot double
LOOKUP_TABLE default
7
7
7
7
7
7
7
7
7
7
7
7
7
7
7
7
7
7
7
7
7
7
7
7
7
7
7
7
7
7
7
7

SCALARS cont_pheno double
LOOKUP_TABLE default
0.5
0.5
0.5
0.5
0.5
0.5
0.5
0.5
0.5
0.5
0.5
0.5
0.5
0.5
0.5
0.5
0.5
0.5
0.5
0.5
0.5
0.5
0.5
0.5
0.5
0.5
0.5
0.5
0.5
0.5
0.5
0.5

SCALARS name double
LOOKUP_TABLE default
18
31
12
22
30
17
36
19
13
38
40
37
35
32
2
20
5
6
27
23
33
28
15
39
34
3
25
41
9
29
26
24

SCALARS interaction_phenotype double
LOOKUP_TABLE default
0
0
0
0
0
0
0
0
0
0
0
0
0
0
0
0
0
0
0
0
0
0
0
0
0
0
0
0
0
0
0
0

SCALARS vessel_interaction double
LOOKUP_TABLE default
0
0
0
0
0
0
0
0
0
0
0
0
0
0
0
0
0
0
0
0
0
0
0
0
0
0
0
0
0
0
0
0

SCALARS is_follower double
LOOKUP_TABLE default
1
1
1
1
1
1
1
1
1
1
1
1
1
1
1
1
1
1
1
1
1
1
1
1
1
1
1
1
1
1
1
1

SCALARS polarised double
LOOKUP_TABLE default
0
0
0
0
0
0
0
0
0
0
0
0
0
0
0
0
0
0
0
0
0
0
0
0
0
0
0
0
0
0
0
0

