# vtk DataFile Version 2.0
Unstructured grid legacy vtk file with point scalar data
ASCII

DATASET UNSTRUCTURED_GRID
POINTS 41 double
335.127 354.356 403.992
330.204 358.179 398.597
339.95 337.018 399.592
337.216 341.684 403.195
342.63 345.258 412.245
338.939 342.381 419.013
339.321 355.57 375.011
340.728 352.155 382.466
340.915 347.038 389.646
340.101 354.521 389.964
341.724 347.159 403.231
338.934 350.94 397.605
341.191 353.783 409.597
341.865 347.92 407.861
336.29 358.042 393.973
345.144 359.877 389.925
350.72 345.157 378.321
348.577 344.275 392.473
346.053 336.698 395.261
353.995 354.803 383.185
347.916 349.213 385.587
345.969 352.065 394.054
352.813 353.888 394.721
349.748 347.114 407.574
349.691 347.506 416.177
353.229 361.849 388.23
358.915 342.026 398.078
357.541 350.284 377.853
361.838 349.661 385.189
365.139 345.725 393.622
356.87 347.714 391.754
364.297 354.569 397.861
359.249 356.279 389.968
357.333 359.079 398.638
362.358 358.127 405.472
371.983 343.532 398.715
370.017 349.025 387.593
372.921 351.257 395.41
370.97 352.745 406.635
368.231 356.756 390.655
373.623 359.276 396.967

POINT_DATA 41
SCALARS radius double
LOOKUP_TABLE default
5.02621
5.02621
4.37271
4.37271
5.02621
5.07271
5.02621
5.02621
5.07271
4.57271
4.13939
5.08931
5.02621
4.13939
4.67271
5.07271
5.02621
5.07271
5.09809
5.03939
5.02621
5.0053
5.08931
5.04636
5.02621
5.07271
5.04636
5.03939
5.08931
5.07271
5.02621
5.08931
5.07271
5.08931
5.08931
5.03939
5.08931
5.03939
5.02621
5.08931
5.02621

SCALARS status double
LOOKUP_TABLE default
1
1
1
1
1
1
1
1
1
1
1
1
1
1
1
1
1
1
1
1
1
1
1
1
1
1
1
1
1
1
1
1
1
1
1
1
1
1
1
1
1

SCALARS concentration double
LOOKUP_TABLE default
29.0073
29.0073
26.2818
26.2818
30.6782
27.6812
30.5222
29.9268
28.6278
30.2217
29.741
29.741
29.741
29.741
30.2217
33.6183
30.9037
30.4638
27.7244
35.5682
31.6568
32.9747
36.3261
31.7788
30.6782
36.0006
33.3776
35.5682
35.5682
36.3764
34.4034
36.3261
38.2201
36.3261
36.3261
39.921
40.9003
39.921
39.8169
40.9003
40.9003

SCALARS fibres double
LOOKUP_TABLE default
0
0
0
0
0
0
0
0
0
0
0
0
0
0
0
0
0
0
0
0
0
0
0
0
0
0
0
0
0
0
0
0
0
0
0
0
0
0
0
0
0

SCALARS phenot double
LOOKUP_TABLE default
7
7
7
7
7
7
7
7
7
7
7
7
7
7
7
7
7
7
7
7
7
7
7
7
7
7
7
7
7
7
7
7
7
7
7
7
7
7
7
7
7

SCALARS cont_pheno double
LOOKUP_TABLE default
0.5
0.5
0.5
0.5
0.5
0.5
0.5
0.5
0.5
0.5
0.5
0.5
0.5
0.5
0.5
0.5
0.5
0.5
0.5
0.5
0.5
0.5
0.5
0.5
0.5
0.5
0.5
0.5
0.5
0.5
0.5
0.5
0.5
0.5
0.5
0.5
0.5
0.5
0.5
0.5
0.5

SCALARS name double
LOOKUP_TABLE default
18
43
31
52
45
30
36
17
19
51
38
47
40
53
13
37
35
32
2
44
20
5
27
23
33
28
15
39
34
9
3
46
25
49
41
50
48
26
24
29
42

SCALARS interaction_phenotype double
LOOKUP_TABLE default
0
0
0
0
0
0
0
0
0
0
0
0
0
0
0
0
0
0
0
0
0
0
0
0
0
0
0
0
0
0
0
0
0
0
0
0
0
0
0
0
0

SCALARS vessel_interaction double
LOOKUP_TABLE default
0
0
0
0
0
0
0
0
0
0
0
0
0
0
0
0
0
0
0
0
0
0
0
0
0
0
0
0
0
0
0
0
0
0
0
0
0
0
0
0
0

SCALARS is_follower double
LOOKUP_TABLE default
1
1
1
1
1
1
1
1
1
1
1
1
1
1
1
1
1
1
1
1
1
1
1
1
1
1
1
1
1
1
1
1
1
1
1
1
1
1
1
1
1

SCALARS polarised double
LOOKUP_TABLE default
0
0
0
0
0
0
0
0
0
0
0
0
0
0
0
0
0
0
0
0
0
0
0
0
0
0
0
0
0
0
0
0
0
0
0
0
0
0
0
0
0

