# vtk DataFile Version 2.0
Unstructured grid legacy vtk file with point scalar data
ASCII

DATASET UNSTRUCTURED_GRID
POINTS 52 double
335.353 337.928 388.028
333.502 341.381 403.686
334.512 354.588 403.411
335.789 360.277 394.534
328.926 357.235 397.969
340.392 335.429 393.778
338.949 334.893 401.252
337.729 345.28 397.637
343.706 343.206 413.874
341.322 344.524 405.197
337.281 337.497 417.276
340.627 348.802 382.308
338.714 353.989 388.875
339.507 353.453 397.068
343.193 353.893 404.635
337.602 350.854 409.89
337.508 348.602 418.042
340.402 355.758 372.877
337.59 356.613 380.889
343.826 360.591 391.015
351.481 345.623 377.857
349.621 344.025 392.127
349.107 349.065 385.097
345.983 351.878 392.587
353.911 353.881 395.132
346.951 347.212 399.58
348.171 348.027 408.248
351.424 347.773 415.819
347.269 346.986 423.297
355.145 362.41 386.867
348.626 367.812 388.826
359.245 339.128 387.936
359.684 338.174 395.896
360.115 345.303 400.081
357.909 350.937 376.831
360.957 349.724 384.9
357.581 346.638 392.206
362.432 352.781 396.983
363.876 350.336 405.011
360.682 356.778 390.295
358.236 360.006 398.286
364.558 358.669 404.373
364.363 361.841 397.927
357.96 359.347 409.414
365.744 345.474 394.03
372.297 344.041 398.874
369.309 348.446 386.948
371.052 352.278 395.327
371.933 354.139 404.152
368.879 357.168 388.654
368.258 358.953 395.835
374.986 359.154 398.217

POINT_DATA 52
SCALARS radius double
LOOKUP_TABLE default
5.08931
5.07271
5.02621
5.07271
5.02621
5.08931
5.02621
5.03939
5.02621
5.09976
5.02621
5.02621
5.07271
5.03939
5.08931
5.09976
5.09976
5.08931
5.08931
5.07271
5.02621
5.07271
5.02621
5.0053
5.08931
5.09976
5.04636
5.08931
5.08931
5.02621
5.02621
5.07271
5.07271
5.0053
5.03939
5.08931
5.02621
5.03939
5.03939
5.07271
5.08931
5.03939
4.19976
5.03939
5.07271
5.03939
5.08931
5.03939
5.08931
5.03939
4.29976
5.02621

SCALARS status double
LOOKUP_TABLE default
1
1
1
1
1
1
1
1
1
1
1
1
1
1
1
1
1
1
1
1
1
1
1
1
1
1
1
1
1
1
1
1
1
1
1
1
1
1
1
1
1
1
1
1
1
1
1
1
1
1
1
1

SCALARS concentration double
LOOKUP_TABLE default
25.7024
26.1829
28.4181
30.4545
27.3863
25.7024
25.7024
29.0396
28.6749
29.0559
25.7264
29.6601
29.9508
29.0396
31.2761
28.7305
28.7305
30.4559
30.4559
33.3889
31.3083
30.4978
31.4686
31.7036
35.1081
30.5584
31.481
31.723
31.723
37.9708
37.0699
31.2588
31.2588
33.5749
34.3697
35.6946
33.9412
37.8382
37.4082
38.263
39.2408
41.2122
42.8656
38.3931
35.7837
36.416
37.7898
40.2552
41.3845
41.981
42.8656
46.4653

SCALARS fibres double
LOOKUP_TABLE default
0
0
0
0
0
0
0
0
0
0
0
0
0
0
0
0
0
0
0
0
0
0
0
0
0
0
0
0
0
0
0
0
0
0
0
0
0
0
0
0
0
0
0
0
0
0
0
0
0
0
0
0

SCALARS phenot double
LOOKUP_TABLE default
7
7
7
7
7
7
7
7
7
7
7
7
7
7
7
7
7
7
7
7
7
7
7
7
7
7
7
7
7
7
7
7
7
7
7
7
7
7
7
7
7
7
7
7
7
7
7
7
7
7
7
7

SCALARS cont_pheno double
LOOKUP_TABLE default
0.5
0.5
0.5
0.5
0.5
0.5
0.5
0.5
0.5
0.5
0.5
0.5
0.5
0.5
0.5
0.5
0.5
0.5
0.5
0.5
0.5
0.5
0.5
0.5
0.5
0.5
0.5
0.5
0.5
0.5
0.5
0.5
0.5
0.5
0.5
0.5
0.5
0.5
0.5
0.5
0.5
0.5
0.5
0.5
0.5
0.5
0.5
0.5
0.5
0.5
0.5
0.5

SCALARS name double
LOOKUP_TABLE default
69
52
18
13
43
64
31
67
45
57
59
17
51
47
62
53
67
36
65
37
35
32
20
5
27
38
23
33
64
28
60
69
55
15
39
34
3
46
58
25
49
41
70
61
9
50
48
26
24
29
56
42

SCALARS interaction_phenotype double
LOOKUP_TABLE default
0
0
0
0
0
0
0
0
0
0
0
0
0
0
0
0
0
0
0
0
0
0
0
0
0
0
0
0
0
0
0
0
0
0
0
0
0
0
0
0
0
0
0
0
0
0
0
0
0
0
0
0

SCALARS vessel_interaction double
LOOKUP_TABLE default
0
0
0
0
0
0
0
0
0
0
0
0
0
0
0
0
0
0
0
0
0
0
0
0
0
0
0
0
0
0
0
0
0
0
0
0
0
0
0
0
0
0
0
0
0
0
0
0
0
0
0
0

SCALARS is_follower double
LOOKUP_TABLE default
1
1
1
1
1
1
1
1
1
1
1
1
1
1
1
1
1
1
1
1
1
1
1
1
1
1
1
1
1
1
1
1
1
1
1
1
1
1
1
1
1
1
1
1
1
1
1
1
1
1
1
1

SCALARS polarised double
LOOKUP_TABLE default
0
0
0
0
0
0
0
0
0
0
0
0
0
0
0
0
0
0
0
0
0
0
0
0
0
0
0
0
0
0
0
0
0
0
0
0
0
0
0
0
0
0
0
0
0
0
0
0
0
0
0
0

