# vtk DataFile Version 2.0
Unstructured grid legacy vtk file with point scalar data
ASCII

DATASET UNSTRUCTURED_GRID
POINTS 49 double
335.518 341.86 403.911
334.261 353.839 403.819
328.496 357.088 398.632
338.81 335.528 398.99
343.371 343.112 413.949
338.233 344.2 420.773
337.615 336.822 417.306
339.319 355.368 375.302
340.817 350.519 381.63
341.131 346.185 389.643
338.491 354.336 388.857
345.716 351.972 392.913
338.482 350.381 397.125
341.772 346.732 404.259
337.87 349.321 410.432
342.131 354.195 405.299
344.442 359.917 390.787
336.339 359.572 394.898
341.61 357.509 411.701
351.337 344.67 377.989
349.378 344.28 392.001
346.764 336.474 395.747
348.009 348.725 385.25
353.52 353.639 395.089
346.359 346.323 398.524
349.151 347.344 408.531
350.082 347.423 416.996
355.164 361.643 387.672
349.484 366.414 389.167
359.249 338.271 394.682
359.088 344.782 400.187
357.639 349.783 377.356
361.428 349.843 384.659
357.895 346.998 391.999
363.197 352.96 396.289
362.723 351.362 403.767
360.352 356.421 390.257
358.625 359.746 398.705
364.011 359.227 404.31
358.04 358.41 409.147
371.957 343.743 398.561
365.825 345.821 394.185
369.793 348.883 387.268
371.855 351.874 395.539
371.968 353.985 403.825
370.515 351.056 412.093
368.453 356.896 388.411
367.33 359.442 396.243
375.506 359.76 398.041

POINT_DATA 49
SCALARS radius double
LOOKUP_TABLE default
5.07271
5.02621
5.02621
5.07271
5.02621
5.02621
5.02621
5.02621
5.02621
5.07271
5.07271
5.0053
5.08931
5.09976
5.03939
4.68931
5.07271
5.07271
4.78931
5.02621
5.07271
5.09809
5.02621
5.08931
5.09976
5.04636
5.02621
5.02621
5.02621
5.0053
5.0053
5.03939
5.08931
5.02621
5.03939
5.03939
5.07271
5.08931
4.83939
4.93939
5.03939
5.07271
5.08931
5.03939
5.08931
5.08931
5.03939
5.03939
5.02621

SCALARS status double
LOOKUP_TABLE default
1
1
1
1
1
1
1
1
1
1
1
1
1
1
1
1
1
1
1
1
1
1
1
1
1
1
1
1
1
1
1
1
1
1
1
1
1
1
1
1
1
1
1
1
1
1
1
1
1

SCALARS concentration double
LOOKUP_TABLE default
26.2818
29.0073
29.0073
26.2818
30.6782
27.6812
27.6812
30.5222
29.9268
28.6278
30.2217
32.9747
29.741
29.741
29.741
29.741
33.6183
30.2217
29.741
30.9037
30.4638
27.7244
31.6568
36.3261
29.741
31.7788
30.6782
36.0006
36.0006
33.3776
33.3776
35.5682
35.5682
34.4034
36.3261
36.3261
38.2201
36.3261
36.3261
36.3261
39.921
36.3764
40.9003
39.921
39.8169
39.8169
40.9003
40.9003
40.9003

SCALARS fibres double
LOOKUP_TABLE default
0
0
0
0
0
0
0
0
0
0
0
0
0
0
0
0
0
0
0
0
0
0
0
0
0
0
0
0
0
0
0
0
0
0
0
0
0
0
0
0
0
0
0
0
0
0
0
0
0

SCALARS phenot double
LOOKUP_TABLE default
7
7
7
7
7
7
7
7
7
7
7
7
7
7
7
7
7
7
7
7
7
7
7
7
7
7
7
7
7
7
7
7
7
7
7
7
7
7
7
7
7
7
7
7
7
7
7
7
7

SCALARS cont_pheno double
LOOKUP_TABLE default
0.5
0.5
0.5
0.5
0.5
0.5
0.5
0.5
0.5
0.5
0.5
0.5
0.5
0.5
0.5
0.5
0.5
0.5
0.5
0.5
0.5
0.5
0.5
0.5
0.5
0.5
0.5
0.5
0.5
0.5
0.5
0.5
0.5
0.5
0.5
0.5
0.5
0.5
0.5
0.5
0.5
0.5
0.5
0.5
0.5
0.5
0.5
0.5
0.5

SCALARS name double
LOOKUP_TABLE default
52
18
43
31
45
30
59
36
17
19
51
5
47
57
53
62
37
13
40
35
32
2
20
27
38
23
33
28
60
55
15
39
34
3
46
58
25
49
41
61
50
9
48
26
24
55
29
56
42

SCALARS interaction_phenotype double
LOOKUP_TABLE default
0
0
0
0
0
0
0
0
0
0
0
0
0
0
0
0
0
0
0
0
0
0
0
0
0
0
0
0
0
0
0
0
0
0
0
0
0
0
0
0
0
0
0
0
0
0
0
0
0

SCALARS vessel_interaction double
LOOKUP_TABLE default
0
0
0
0
0
0
0
0
0
0
0
0
0
0
0
0
0
0
0
0
0
0
0
0
0
0
0
0
0
0
0
0
0
0
0
0
0
0
0
0
0
0
0
0
0
0
0
0
0

SCALARS is_follower double
LOOKUP_TABLE default
1
1
1
1
1
1
1
1
1
1
1
1
1
1
1
1
1
1
1
1
1
1
1
1
1
1
1
1
1
1
1
1
1
1
1
1
1
1
1
1
1
1
1
1
1
1
1
1
1

SCALARS polarised double
LOOKUP_TABLE default
0
0
0
0
0
0
0
0
0
0
0
0
0
0
0
0
0
0
0
0
0
0
0
0
0
0
0
0
0
0
0
0
0
0
0
0
0
0
0
0
0
0
0
0
0
0
0
0
0

