# vtk DataFile Version 2.0
Unstructured grid legacy vtk file with point scalar data
ASCII

DATASET UNSTRUCTURED_GRID
POINTS 43 double
335.016 354.132 404.431
335.726 358.915 394.485
329.028 357.554 399.071
339.789 336.081 399.662
336.62 342.181 403.609
343.331 344.308 413.459
338.255 342.455 419.594
340.969 351.535 381.989
341.044 346.283 389.621
339.456 354.376 389.309
343.537 346.627 401.208
338.42 351.224 397.167
341.256 355.376 410.217
340.463 348.612 407.688
339.861 355.808 374.832
345.278 359.859 389.831
350.916 345.316 378.322
348.982 344.276 392.417
346.604 336.557 395.333
345.891 351.914 393.963
348.112 349.254 385.808
353.341 354.145 394.811
349.139 347.834 408.172
349.62 347.859 416.679
353.087 362.281 388.224
358.76 338.716 394.701
358.645 343.649 398.663
357.668 350.275 377.771
361.622 349.428 384.775
365.424 346.185 394.392
357.263 347.601 391.61
364.078 353.897 397.774
359.798 356.41 390.352
357.862 360.024 398.737
362.602 357.995 405.274
371.884 343.251 398.909
369.774 348.834 387.661
372.625 351.292 395.607
371.765 353.329 404.664
370.105 351.051 411.239
368.487 356.711 390.324
368.211 357.131 395.007
374.15 359.588 397.085

POINT_DATA 43
SCALARS radius double
LOOKUP_TABLE default
5.02621
5.07271
5.02621
5.07271
5.07271
5.02621
5.07271
5.02621
5.07271
5.07271
4.93939
5.08931
5.02621
4.93939
5.02621
5.07271
5.02621
5.07271
5.09809
5.0053
5.02621
5.08931
5.04636
5.02621
5.07271
4.4053
4.3053
5.03939
5.08931
5.07271
5.02621
5.08931
5.07271
5.08931
5.08931
5.03939
5.08931
5.03939
4.48931
4.58931
4.03939
4.13939
5.02621

SCALARS status double
LOOKUP_TABLE default
1
1
1
1
1
1
1
1
1
1
1
1
1
1
1
1
1
1
1
1
1
1
1
1
1
1
1
1
1
1
1
1
1
1
1
1
1
1
1
1
1
1
1

SCALARS concentration double
LOOKUP_TABLE default
29.0073
30.2217
29.0073
26.2818
26.2818
30.6782
27.6812
29.9268
28.6278
30.2217
29.741
29.741
29.741
29.741
30.5222
33.6183
30.9037
30.4638
27.7244
32.9747
31.6568
36.3261
31.7788
30.6782
36.0006
33.3776
33.3776
35.5682
35.5682
36.3764
34.4034
36.3261
38.2201
36.3261
36.3261
39.921
40.9003
39.921
39.8169
39.8169
40.9003
40.9003
40.9003

SCALARS fibres double
LOOKUP_TABLE default
0
0
0
0
0
0
0
0
0
0
0
0
0
0
0
0
0
0
0
0
0
0
0
0
0
0
0
0
0
0
0
0
0
0
0
0
0
0
0
0
0
0
0

SCALARS phenot double
LOOKUP_TABLE default
7
7
7
7
7
7
7
7
7
7
7
7
7
7
7
7
7
7
7
7
7
7
7
7
7
7
7
7
7
7
7
7
7
7
7
7
7
7
7
7
7
7
7

SCALARS cont_pheno double
LOOKUP_TABLE default
0.5
0.5
0.5
0.5
0.5
0.5
0.5
0.5
0.5
0.5
0.5
0.5
0.5
0.5
0.5
0.5
0.5
0.5
0.5
0.5
0.5
0.5
0.5
0.5
0.5
0.5
0.5
0.5
0.5
0.5
0.5
0.5
0.5
0.5
0.5
0.5
0.5
0.5
0.5
0.5
0.5
0.5
0.5

SCALARS name double
LOOKUP_TABLE default
18
13
43
31
52
45
30
17
19
51
38
47
40
53
36
37
35
32
2
5
20
27
23
33
28
55
15
39
34
9
3
46
25
49
41
50
48
26
24
55
29
56
42

SCALARS interaction_phenotype double
LOOKUP_TABLE default
0
0
0
0
0
0
0
0
0
0
0
0
0
0
0
0
0
0
0
0
0
0
0
0
0
0
0
0
0
0
0
0
0
0
0
0
0
0
0
0
0
0
0

SCALARS vessel_interaction double
LOOKUP_TABLE default
0
0
0
0
0
0
0
0
0
0
0
0
0
0
0
0
0
0
0
0
0
0
0
0
0
0
0
0
0
0
0
0
0
0
0
0
0
0
0
0
0
0
0

SCALARS is_follower double
LOOKUP_TABLE default
1
1
1
1
1
1
1
1
1
1
1
1
1
1
1
1
1
1
1
1
1
1
1
1
1
1
1
1
1
1
1
1
1
1
1
1
1
1
1
1
1
1
1

SCALARS polarised double
LOOKUP_TABLE default
0
0
0
0
0
0
0
0
0
0
0
0
0
0
0
0
0
0
0
0
0
0
0
0
0
0
0
0
0
0
0
0
0
0
0
0
0
0
0
0
0
0
0

