# vtk DataFile Version 2.0
Unstructured grid legacy vtk file with point scalar data
ASCII

DATASET UNSTRUCTURED_GRID
POINTS 7 double
353.946 341.773 395.269
346.828 345.017 397.689
349.503 352.044 393.59
354.104 349.212 400.115
357.016 348.873 391.895
359.193 355.426 397.24
364.099 350.342 396.942

POINT_DATA 7
SCALARS radius double
LOOKUP_TABLE default
5.03728
5.03728
5.03728
5.03728
5.09809
4.44636
4.54636

SCALARS status double
LOOKUP_TABLE default
1
1
1
1
1
1
1

SCALARS concentration double
LOOKUP_TABLE default
29.9799
29.9799
32.6587
33.2529
34.3421
36.8748
36.8748

SCALARS fibres double
LOOKUP_TABLE default
0
0
0
0
0
0
0

SCALARS phenot double
LOOKUP_TABLE default
7
7
7
7
7
7
7

SCALARS cont_pheno double
LOOKUP_TABLE default
0.5
0.5
0.5
0.5
0.5
0.5
0.5

SCALARS name double
LOOKUP_TABLE default
8
2
5
6
3
7
9

SCALARS interaction_phenotype double
LOOKUP_TABLE default
0
0
0
0
0
0
0

SCALARS vessel_interaction double
LOOKUP_TABLE default
0
0
0
0
0
0
0

SCALARS is_follower double
LOOKUP_TABLE default
1
1
1
1
1
1
1

SCALARS polarised double
LOOKUP_TABLE default
0
0
0
0
0
0
0

