# vtk DataFile Version 2.0
Unstructured grid legacy vtk file with point scalar data
ASCII

DATASET UNSTRUCTURED_GRID
POINTS 10 double
342.36 345.39 401.709
345.599 351.691 397.559
354.395 340.881 394.884
346.303 343.302 394.268
349.167 351.849 392.835
351.711 347.051 400.075
356.64 349.37 393.202
362.611 352.37 399.513
357.403 357.931 395.49
367.422 346.741 395.229

POINT_DATA 10
SCALARS radius double
LOOKUP_TABLE default
5.09809
4.19809
5.03728
5.09809
4.19809
5.09809
5.09809
5.0053
5.04636
5.0053

SCALARS status double
LOOKUP_TABLE default
1
1
1
1
1
1
1
1
1
1

SCALARS concentration double
LOOKUP_TABLE default
29.3603
32.7338
30.8962
29.6494
32.7338
32.7334
34.5801
37.5025
38.3329
36.8292

SCALARS fibres double
LOOKUP_TABLE default
0
0
0
0
0
0
0
0
0
0

SCALARS phenot double
LOOKUP_TABLE default
7
7
7
7
7
7
7
7
7
7

SCALARS cont_pheno double
LOOKUP_TABLE default
0.5
0.5
0.5
0.5
0.5
0.5
0.5
0.5
0.5
0.5

SCALARS name double
LOOKUP_TABLE default
12
13
8
2
5
6
3
11
7
9

SCALARS interaction_phenotype double
LOOKUP_TABLE default
0
0
0
0
0
0
0
0
0
0

SCALARS vessel_interaction double
LOOKUP_TABLE default
0
0
0
0
0
0
0
0
0
0

SCALARS is_follower double
LOOKUP_TABLE default
1
1
1
1
1
1
1
1
1
1

SCALARS polarised double
LOOKUP_TABLE default
0
0
0
0
0
0
0
0
0
0

