# vtk DataFile Version 2.0
Unstructured grid legacy vtk file with point scalar data
ASCII

DATASET UNSTRUCTURED_GRID
POINTS 25 double
345.355 343.251 401.919
341.021 338.132 400.753
342.467 345.311 408.382
341.244 344.844 415.919
340.911 351.606 384.323
342.502 347.618 390.09
338.868 352.89 395.51
336.252 354.538 403.357
346.278 339.278 394.629
354.455 341.161 392.684
348.349 347.4 383.503
347.339 354.017 394.948
346.72 346.313 393.217
350.641 346.559 397.677
355.485 353.199 396.831
350.781 347.536 405.642
349.642 358.662 388.553
360.897 343.707 397.637
358.833 348.073 390.694
359.476 356.798 389.962
367.617 354.998 391.847
367.107 346.322 392.281
365.899 350.599 399.302
373.763 350.735 396.382
370.176 352.961 406.19

POINT_DATA 25
SCALARS radius double
LOOKUP_TABLE default
4.6053
4.6053
5.0053
5.0053
5.07271
4.27271
5.0053
5.0053
5.09809
5.03728
5.07271
5.0053
4.27271
5.04636
5.07271
5.04636
5.0053
5.04636
5.07271
5.07271
5.07271
5.07271
5.08931
5.08931
5.02621

SCALARS status double
LOOKUP_TABLE default
1
1
1
1
1
1
1
1
1
1
1
1
1
1
1
1
1
1
1
1
1
1
1
1
1

SCALARS concentration double
LOOKUP_TABLE default
28.8746
28.8746
28.7218
28.7218
29.6663
30.1279
29.6007
29.6347
28.7816
30.841
31.6061
33.4574
30.1279
32.2052
35.1149
32.3133
33.4574
33.6599
35.1149
35.1149
35.1149
36.2966
38.6303
38.6303
39.5824

SCALARS fibres double
LOOKUP_TABLE default
0
0
0
0
0
0
0
0
0
0
0
0
0
0
0
0
0
0
0
0
0
0
0
0
0

SCALARS phenot double
LOOKUP_TABLE default
7
7
7
7
7
7
7
7
7
7
7
7
7
7
7
7
7
7
7
7
7
7
7
7
7

SCALARS cont_pheno double
LOOKUP_TABLE default
0.5
0.5
0.5
0.5
0.5
0.5
0.5
0.5
0.5
0.5
0.5
0.5
0.5
0.5
0.5
0.5
0.5
0.5
0.5
0.5
0.5
0.5
0.5
0.5
0.5

SCALARS name double
LOOKUP_TABLE default
12
31
22
30
17
19
13
18
2
8
20
5
32
6
27
23
28
15
3
25
29
9
16
26
24

SCALARS interaction_phenotype double
LOOKUP_TABLE default
0
0
0
0
0
0
0
0
0
0
0
0
0
0
0
0
0
0
0
0
0
0
0
0
0

SCALARS vessel_interaction double
LOOKUP_TABLE default
0
0
0
0
0
0
0
0
0
0
0
0
0
0
0
0
0
0
0
0
0
0
0
0
0

SCALARS is_follower double
LOOKUP_TABLE default
1
1
1
1
1
1
1
1
1
1
1
1
1
1
1
1
1
1
1
1
1
1
1
1
1

SCALARS polarised double
LOOKUP_TABLE default
0
0
0
0
0
0
0
0
0
0
0
0
0
0
0
0
0
0
0
0
0
0
0
0
0

