# vtk DataFile Version 2.0
Unstructured grid legacy vtk file with point scalar data
ASCII

DATASET UNSTRUCTURED_GRID
POINTS 14 double
345.537 343.634 394.571
343.572 345.462 401.919
343.234 349.891 387.425
343.645 349.195 392.253
340.474 351.331 395.457
340.592 352.375 401.637
353.302 340.637 393.559
348.735 352.596 393.58
351.904 346.93 399.199
347.791 353.972 401.961
360.368 345.04 397.425
356.37 350.736 392.872
368.185 346.194 393.233
368.625 349.455 400.536

POINT_DATA 14
SCALARS radius double
LOOKUP_TABLE default
5.09809
5.09809
4.1053
4.2053
4.4053
4.4053
5.03728
5.04636
5.09809
5.04636
5.04636
5.04636
5.07271
5.07271

SCALARS status double
LOOKUP_TABLE default
1
1
1
1
1
1
1
1
1
1
1
1
1
1

SCALARS concentration double
LOOKUP_TABLE default
29.6494
29.3603
32.7338
32.7338
32.7338
32.7338
30.8962
32.7338
32.7334
32.7338
34.5801
34.5801
36.8292
36.8292

SCALARS fibres double
LOOKUP_TABLE default
0
0
0
0
0
0
0
0
0
0
0
0
0
0

SCALARS phenot double
LOOKUP_TABLE default
7
7
7
7
7
7
7
7
7
7
7
7
7
7

SCALARS cont_pheno double
LOOKUP_TABLE default
0.5
0.5
0.5
0.5
0.5
0.5
0.5
0.5
0.5
0.5
0.5
0.5
0.5
0.5

SCALARS name double
LOOKUP_TABLE default
2
12
17
19
13
18
8
5
6
14
15
3
9
16

SCALARS interaction_phenotype double
LOOKUP_TABLE default
0
0
0
0
0
0
0
0
0
0
0
0
0
0

SCALARS vessel_interaction double
LOOKUP_TABLE default
0
0
0
0
0
0
0
0
0
0
0
0
0
0

SCALARS is_follower double
LOOKUP_TABLE default
1
1
1
1
1
1
1
1
1
1
1
1
1
1

SCALARS polarised double
LOOKUP_TABLE default
0
0
0
0
0
0
0
0
0
0
0
0
0
0

