# vtk DataFile Version 2.0
Unstructured grid legacy vtk file with point scalar data
ASCII

DATASET UNSTRUCTURED_GRID
POINTS 18 double
343.348 343.856 401.736
342.599 343.641 409.629
340.134 351.099 383.673
343.856 347.995 391.323
338.759 352.789 395.89
337.562 354.072 403.941
344.515 352.2 401.645
354.192 340.829 393.163
346.441 340.884 394.972
348.859 348.747 383.767
348.9 353.956 394.323
352.501 346.712 397.712
350.507 348.402 403.217
351.753 356.317 402.357
360.235 344.668 397.417
356.741 350.939 393.24
367.875 345.789 393.194
368.226 350.933 400.672

POINT_DATA 18
SCALARS radius double
LOOKUP_TABLE default
5.04636
5.04636
5.07271
5.0053
5.0053
5.0053
5.0053
5.03728
5.09809
5.07271
5.04636
4.34636
4.34636
5.0053
5.04636
5.04636
5.07271
5.07271

SCALARS status double
LOOKUP_TABLE default
1
1
1
1
1
1
1
1
1
1
1
1
1
1
1
1
1
1

SCALARS concentration double
LOOKUP_TABLE default
29.3603
29.3603
32.7338
32.7338
32.7338
32.7338
32.7338
30.8962
29.6494
32.7338
32.7338
32.7334
32.7334
32.7338
34.5801
34.5801
36.8292
36.8292

SCALARS fibres double
LOOKUP_TABLE default
0
0
0
0
0
0
0
0
0
0
0
0
0
0
0
0
0
0

SCALARS phenot double
LOOKUP_TABLE default
7
7
7
7
7
7
7
7
7
7
7
7
7
7
7
7
7
7

SCALARS cont_pheno double
LOOKUP_TABLE default
0.5
0.5
0.5
0.5
0.5
0.5
0.5
0.5
0.5
0.5
0.5
0.5
0.5
0.5
0.5
0.5
0.5
0.5

SCALARS name double
LOOKUP_TABLE default
12
22
17
19
13
18
21
8
2
20
5
6
23
14
15
3
9
16

SCALARS interaction_phenotype double
LOOKUP_TABLE default
0
0
0
0
0
0
0
0
0
0
0
0
0
0
0
0
0
0

SCALARS vessel_interaction double
LOOKUP_TABLE default
0
0
0
0
0
0
0
0
0
0
0
0
0
0
0
0
0
0

SCALARS is_follower double
LOOKUP_TABLE default
1
1
1
1
1
1
1
1
1
1
1
1
1
1
1
1
1
1

SCALARS polarised double
LOOKUP_TABLE default
0
0
0
0
0
0
0
0
0
0
0
0
0
0
0
0
0
0

