# vtk DataFile Version 2.0
Unstructured grid legacy vtk file with point scalar data
ASCII

DATASET UNSTRUCTURED_GRID
POINTS 15 double
344.019 345.67 402.3
342.287 350.694 384.414
343.648 347.925 391.488
338.805 352.633 395.098
339.9 352.996 403.285
354.012 340.774 393.37
345.859 341.623 395.21
347.202 349.54 384.542
348.922 353.619 393.779
351.853 346.981 399.034
348.074 353.735 402.444
360.358 344.82 397.568
356.809 351.091 392.563
367.555 345.868 392.712
368.801 349.759 400.762

POINT_DATA 15
SCALARS radius double
LOOKUP_TABLE default
5.09809
4.07271
5.0053
5.0053
5.0053
5.03728
5.09809
4.07271
5.04636
5.09809
5.04636
5.04636
5.04636
5.07271
5.07271

SCALARS status double
LOOKUP_TABLE default
1
1
1
1
1
1
1
1
1
1
1
1
1
1
1

SCALARS concentration double
LOOKUP_TABLE default
29.3603
32.7338
32.7338
32.7338
32.7338
30.8962
29.6494
32.7338
32.7338
32.7334
32.7338
34.5801
34.5801
36.8292
36.8292

SCALARS fibres double
LOOKUP_TABLE default
0
0
0
0
0
0
0
0
0
0
0
0
0
0
0

SCALARS phenot double
LOOKUP_TABLE default
7
7
7
7
7
7
7
7
7
7
7
7
7
7
7

SCALARS cont_pheno double
LOOKUP_TABLE default
0.5
0.5
0.5
0.5
0.5
0.5
0.5
0.5
0.5
0.5
0.5
0.5
0.5
0.5
0.5

SCALARS name double
LOOKUP_TABLE default
12
17
19
13
18
8
2
20
5
6
14
15
3
9
16

SCALARS interaction_phenotype double
LOOKUP_TABLE default
0
0
0
0
0
0
0
0
0
0
0
0
0
0
0

SCALARS vessel_interaction double
LOOKUP_TABLE default
0
0
0
0
0
0
0
0
0
0
0
0
0
0
0

SCALARS is_follower double
LOOKUP_TABLE default
1
1
1
1
1
1
1
1
1
1
1
1
1
1
1

SCALARS polarised double
LOOKUP_TABLE default
0
0
0
0
0
0
0
0
0
0
0
0
0
0
0

