# vtk DataFile Version 2.0
Unstructured grid legacy vtk file with point scalar data
ASCII

DATASET UNSTRUCTURED_GRID
POINTS 13 double
345.602 343.483 394.274
343.701 350.173 389.307
343.55 345.786 402.078
340.726 351.553 396.448
353.404 340.958 394.168
348.648 352.382 393.61
351.612 346.878 399.502
347.5 353.926 401.437
360.48 345.301 397.328
355.981 350.691 392.635
361.823 353.186 399.687
368.069 345.91 393.759
368.772 349.309 399.65

POINT_DATA 13
SCALARS radius double
LOOKUP_TABLE default
5.09809
4.54636
5.09809
5.04636
5.03728
4.64636
5.09809
5.04636
5.04636
5.04636
5.0053
4.57271
4.67271

SCALARS status double
LOOKUP_TABLE default
1
1
1
1
1
1
1
1
1
1
1
1
1

SCALARS concentration double
LOOKUP_TABLE default
29.6494
32.7338
29.3603
32.7338
30.8962
32.7338
32.7334
32.7338
34.5801
34.5801
37.5025
36.8292
36.8292

SCALARS fibres double
LOOKUP_TABLE default
0
0
0
0
0
0
0
0
0
0
0
0
0

SCALARS phenot double
LOOKUP_TABLE default
7
7
7
7
7
7
7
7
7
7
7
7
7

SCALARS cont_pheno double
LOOKUP_TABLE default
0.5
0.5
0.5
0.5
0.5
0.5
0.5
0.5
0.5
0.5
0.5
0.5
0.5

SCALARS name double
LOOKUP_TABLE default
2
17
12
13
8
5
6
14
15
3
11
9
16

SCALARS interaction_phenotype double
LOOKUP_TABLE default
0
0
0
0
0
0
0
0
0
0
0
0
0

SCALARS vessel_interaction double
LOOKUP_TABLE default
0
0
0
0
0
0
0
0
0
0
0
0
0

SCALARS is_follower double
LOOKUP_TABLE default
1
1
1
1
1
1
1
1
1
1
1
1
1

SCALARS polarised double
LOOKUP_TABLE default
0
0
0
0
0
0
0
0
0
0
0
0
0

