# vtk DataFile Version 2.0
Unstructured grid legacy vtk file with point scalar data
ASCII

DATASET UNSTRUCTURED_GRID
POINTS 32 double
333.852 355.385 403.519
339.097 337.73 400.814
345.148 343.52 401.127
345.696 337.175 395.198
341.87 344.677 409.324
339.667 342.655 416.902
340.15 351.661 383.294
340.19 354.969 375.369
340.047 347.031 390.23
339.172 354.553 394.176
341.286 350.243 400.192
339.291 351.456 406.881
344.678 359.153 390.41
349.597 345.647 378.606
347.752 345.477 393.499
347.712 349.544 386.357
347.719 353.313 396.248
353.205 347.555 399.456
354.939 354.589 395.993
349.398 347.71 407.205
346.634 347.118 415.468
352.79 360.132 386.733
360.495 343.213 398.239
357.141 354.01 381.88
362.544 348.47 385.729
357.551 347.97 392.297
359.855 356.294 390.016
360.275 356.825 399.901
365.879 346.661 392.917
367.923 355.334 392.562
373.687 349.771 396.492
370.404 352.045 406.494

POINT_DATA 32
SCALARS radius double
LOOKUP_TABLE default
5.07271
5.0053
5.0053
5.09809
5.0053
5.07271
5.02621
5.02621
5.07271
5.0053
4.72621
4.72621
5.07271
5.02621
5.07271
5.02621
5.0053
5.04636
4.52621
5.04636
5.07271
5.07271
5.04636
5.08931
5.08931
5.02621
5.07271
4.52621
5.07271
5.07271
5.08931
5.02621

SCALARS status double
LOOKUP_TABLE default
1
1
1
1
1
1
1
1
1
1
1
1
1
1
1
1
1
1
1
1
1
1
1
1
1
1
1
1
1
1
1
1

SCALARS concentration double
LOOKUP_TABLE default
29.0073
26.2818
29.2038
27.7244
28.7415
27.6812
29.9268
30.5222
28.6278
30.2217
29.741
29.741
33.6183
30.9037
30.4638
31.6568
32.9747
32.639
36.3261
31.7788
30.6782
36.0006
33.3776
35.5682
35.5682
34.4034
38.2201
36.3261
36.3764
40.9003
39.921
39.8169

SCALARS fibres double
LOOKUP_TABLE default
0
0
0
0
0
0
0
0
0
0
0
0
0
0
0
0
0
0
0
0
0
0
0
0
0
0
0
0
0
0
0
0

SCALARS phenot double
LOOKUP_TABLE default
7
7
7
7
7
7
7
7
7
7
7
7
7
7
7
7
7
7
7
7
7
7
7
7
7
7
7
7
7
7
7
7

SCALARS cont_pheno double
LOOKUP_TABLE default
0.5
0.5
0.5
0.5
0.5
0.5
0.5
0.5
0.5
0.5
0.5
0.5
0.5
0.5
0.5
0.5
0.5
0.5
0.5
0.5
0.5
0.5
0.5
0.5
0.5
0.5
0.5
0.5
0.5
0.5
0.5
0.5

SCALARS name double
LOOKUP_TABLE default
18
31
12
2
22
30
17
36
19
13
38
40
37
35
32
20
5
6
27
23
33
28
15
39
34
3
25
41
9
29
26
24

SCALARS interaction_phenotype double
LOOKUP_TABLE default
0
0
0
0
0
0
0
0
0
0
0
0
0
0
0
0
0
0
0
0
0
0
0
0
0
0
0
0
0
0
0
0

SCALARS vessel_interaction double
LOOKUP_TABLE default
0
0
0
0
0
0
0
0
0
0
0
0
0
0
0
0
0
0
0
0
0
0
0
0
0
0
0
0
0
0
0
0

SCALARS is_follower double
LOOKUP_TABLE default
1
1
1
1
1
1
1
1
1
1
1
1
1
1
1
1
1
1
1
1
1
1
1
1
1
1
1
1
1
1
1
1

SCALARS polarised double
LOOKUP_TABLE default
0
0
0
0
0
0
0
0
0
0
0
0
0
0
0
0
0
0
0
0
0
0
0
0
0
0
0
0
0
0
0
0

