# vtk DataFile Version 2.0
Unstructured grid legacy vtk file with point scalar data
ASCII

DATASET UNSTRUCTURED_GRID
POINTS 27 double
335.605 354.612 403.155
345.565 343.419 401.075
340.027 337.47 400.612
341.688 345.09 408.508
339.718 343.489 417.001
340.579 351.685 382.374
340.1 347.538 389.208
339.192 353.191 395.211
346.601 337.994 394.606
354.167 341.048 392.707
348.104 348.144 384.279
347.704 354.269 394.981
347.753 346.372 392.456
352.442 346.886 398.744
345.938 346.725 414.736
350.083 347.518 406.814
349.952 359.018 388.385
360.442 343.656 397.226
358.731 348.134 391.799
360.627 349.505 386.536
356.119 353.644 396.688
359.589 356.268 389.718
368.342 354.785 391.865
367.073 346.309 391.842
365.793 350.523 399.315
374.057 350.521 396.632
369.788 352.756 406.669

POINT_DATA 27
SCALARS radius double
LOOKUP_TABLE default
5.0053
5.0053
5.0053
5.0053
4.87271
5.07271
5.07271
5.0053
5.09809
5.03728
5.07271
5.0053
5.07271
5.04636
4.87271
5.04636
5.0053
5.04636
4.22621
4.22621
5.07271
5.07271
5.07271
5.07271
5.08931
5.08931
5.02621

SCALARS status double
LOOKUP_TABLE default
1
1
1
1
1
1
1
1
1
1
1
1
1
1
1
1
1
1
1
1
1
1
1
1
1
1
1

SCALARS concentration double
LOOKUP_TABLE default
29.6347
28.8746
28.8746
28.7218
28.7218
29.6663
30.1279
29.6007
28.7816
30.841
31.6061
33.4574
30.1279
32.2052
28.7218
32.3133
33.4574
33.6599
35.1149
35.1149
35.1149
35.1149
35.1149
36.2966
38.6303
38.6303
39.5824

SCALARS fibres double
LOOKUP_TABLE default
0
0
0
0
0
0
0
0
0
0
0
0
0
0
0
0
0
0
0
0
0
0
0
0
0
0
0

SCALARS phenot double
LOOKUP_TABLE default
7
7
7
7
7
7
7
7
7
7
7
7
7
7
7
7
7
7
7
7
7
7
7
7
7
7
7

SCALARS cont_pheno double
LOOKUP_TABLE default
0.5
0.5
0.5
0.5
0.5
0.5
0.5
0.5
0.5
0.5
0.5
0.5
0.5
0.5
0.5
0.5
0.5
0.5
0.5
0.5
0.5
0.5
0.5
0.5
0.5
0.5
0.5

SCALARS name double
LOOKUP_TABLE default
18
12
31
22
30
17
19
13
2
8
20
5
32
6
33
23
28
15
3
34
27
25
29
9
16
26
24

SCALARS interaction_phenotype double
LOOKUP_TABLE default
0
0
0
0
0
0
0
0
0
0
0
0
0
0
0
0
0
0
0
0
0
0
0
0
0
0
0

SCALARS vessel_interaction double
LOOKUP_TABLE default
0
0
0
0
0
0
0
0
0
0
0
0
0
0
0
0
0
0
0
0
0
0
0
0
0
0
0

SCALARS is_follower double
LOOKUP_TABLE default
1
1
1
1
1
1
1
1
1
1
1
1
1
1
1
1
1
1
1
1
1
1
1
1
1
1
1

SCALARS polarised double
LOOKUP_TABLE default
0
0
0
0
0
0
0
0
0
0
0
0
0
0
0
0
0
0
0
0
0
0
0
0
0
0
0

