# vtk DataFile Version 2.0
Unstructured grid legacy vtk file with point scalar data
ASCII

DATASET UNSTRUCTURED_GRID
POINTS 5 double
347.792 344.13 397.174
349.639 352.378 395.002
355.087 348.03 400.122
356.329 348.406 391.312
359.505 354.307 397.053

POINT_DATA 5
SCALARS radius double
LOOKUP_TABLE default
5.08666
5.03728
5.03728
5.09809
5.09809

SCALARS status double
LOOKUP_TABLE default
1
1
1
1
1

SCALARS concentration double
LOOKUP_TABLE default
29.9799
32.6587
33.2529
34.3421
36.8748

SCALARS fibres double
LOOKUP_TABLE default
0
0
0
0
0

SCALARS phenot double
LOOKUP_TABLE default
7
7
7
7
7

SCALARS cont_pheno double
LOOKUP_TABLE default
0.5
0.5
0.5
0.5
0.5

SCALARS name double
LOOKUP_TABLE default
2
5
6
3
7

SCALARS interaction_phenotype double
LOOKUP_TABLE default
0
0
0
0
0

SCALARS vessel_interaction double
LOOKUP_TABLE default
0
0
0
0
0

SCALARS is_follower double
LOOKUP_TABLE default
1
1
1
1
1

SCALARS polarised double
LOOKUP_TABLE default
0
0
0
0
0

