# vtk DataFile Version 2.0
Unstructured grid legacy vtk file with point scalar data
ASCII

DATASET UNSTRUCTURED_GRID
POINTS 127 double
325.704 339.159 388.752
324.009 341.215 396.264
335.406 328.907 387.283
327.264 333.471 390.021
332.96 330.972 397.803
334.56 333.401 406.486
331.981 335.853 376.377
333.762 336.19 391.555
331.295 342.774 394.562
329.005 337.927 402.082
333.523 345.24 400.942
335.12 341.733 407.288
328.465 344.462 412.131
332.665 339.583 417.316
332.127 339.137 422.317
326.47 354.322 395.011
332.432 352.357 401.598
334.008 349.96 408.149
333.862 349.647 414.398
328.077 362.106 401.646
335.794 359.31 403.92
328.706 358.986 409.483
340.65 331.971 393.555
340.758 329.78 401.64
344.908 335.63 399.258
339.603 336.497 385.553
342.51 340.048 392.742
336.247 344.227 388.937
337.284 337.729 399.55
341.06 345.7 399.136
342.109 336.588 406.885
342.666 344.453 409.22
339.401 344.05 420.401
340.92 353.909 364.053
341.457 354.361 371.793
337.217 348.857 375.318
340.707 348.647 383.273
344.245 351.833 390.56
337.287 353.86 395.422
340.527 353.027 403.985
342.7 346.843 405.308
340.409 352.44 415.168
342.137 352.011 422.483
338.489 360.562 375.261
342.812 356.97 383.962
337.021 362.302 396.246
344.959 355.78 397.749
343.845 363.255 399.448
343.327 373.304 377.561
345.539 367.153 383.475
341.919 365.974 391.24
350.986 343.93 375.062
353.382 342.881 383.368
347.828 345.012 389.213
351.338 344.643 393.103
347.348 341.675 399.217
354.641 343.646 399.68
353.017 343.624 415.026
350.628 338.339 424.176
346.319 341.782 430.284
351.362 351.977 375.278
351.959 350.208 367.097
348.947 350.394 383.641
353.183 355.25 395.196
348.432 348.854 397.259
350.732 353.467 403.204
345.912 352.218 409.744
352.264 353.421 415.209
346.418 347.46 416.575
350.603 352.304 422.682
345.938 349.408 428.954
354.426 361.113 382.96
348.881 359.572 389.009
353.411 360.739 406.56
353.155 362.863 414.815
346.675 358.564 418.548
348.306 366.793 375.411
347.759 375.183 385.283
352.756 374.094 392.693
353.923 368.894 385.996
363.76 335.515 392.324
364.355 328.309 403.529
356.123 339.175 393.061
360.047 339.343 385.824
363.657 343.822 392.459
363.703 336.536 401.092
358.933 345.061 405.818
359.081 351.249 378.161
362.281 350.8 385.503
355.803 354.01 387.272
361.446 354.901 392.975
356.521 347.861 392.564
358.684 350.707 399.675
365.096 349.214 405.118
363.546 350.045 413.654
358.739 354.204 406.421
356.653 348.983 411.012
358.024 355.736 370.333
360.809 359.566 377.553
362.321 359.442 386.117
363.545 362.94 393.811
358.789 359.548 399.839
360.931 363.489 406.916
359.038 357.451 412.758
365.416 355.795 418.405
361.762 361.664 417.718
356.98 367.397 377.996
361.656 371.613 394.056
365.655 345.642 377.77
366.546 345.165 385.276
371.169 339.767 392.509
374.84 342.914 399.766
365.899 341.615 407.605
370.817 344.345 413.502
367.766 353.636 379.644
370.189 353.298 402.17
374.407 347.744 406.489
370.867 358.799 385.844
370.253 357.061 394.291
367.07 360.734 401.511
374.542 355.858 410.059
366.41 356.72 408.961
371.279 365.535 395.947
383.17 355.292 405.499
379.291 358.166 387.499
378.642 355.738 394.848
376.435 357.174 401.98

POINT_DATA 127
SCALARS radius double
LOOKUP_TABLE default
4.30635
5.04768
5.04768
4.20635
5.08931
5.01614
5.04768
5.09976
5.04768
5.01614
5.04768
5.06002
5.08931
4.03939
4.13939
5.08931
5.03939
4.59976
4.59976
5.09976
5.08931
5.09976
5.03939
5.02621
4.69976
5.04768
5.09976
5.09976
5.09976
5.09976
5.09976
4.14768
5.09976
4.79976
4.69976
5.03939
5.08931
5.0053
5.09976
5.03939
4.14768
5.09976
5.04768
5.03939
5.09976
4.83939
5.09976
4.83939
5.09976
5.09976
5.08931
5.08931
5.08931
4.22621
4.22621
4.79976
5.08931
5.08931
5.09976
4.99976
5.04768
5.04768
5.02621
5.03939
5.04768
5.04768
5.03939
5.04768
5.00635
5.00635
5.04768
5.03939
5.09976
5.04768
5.04768
5.04768
5.09976
5.09976
5.09976
5.03939
5.03939
5.08931
5.02621
5.07271
5.08931
5.03939
4.78931
5.04768
4.54768
5.09976
5.04768
5.09976
5.00635
5.04768
5.09976
5.07354
4.78931
5.04768
5.03939
5.02621
5.02621
5.08931
5.03939
5.00635
4.57354
4.67354
5.09976
5.04768
5.03939
4.54768
5.08931
5.06831
5.07271
5.00635
5.09976
5.03939
5.00635
5.09976
5.00635
5.00635
5.09976
5.07354
5.00635
5.09976
5.07354
5.02687
5.02687

SCALARS status double
LOOKUP_TABLE default
1
1
1
1
1
1
1
1
1
1
1
1
1
1
1
1
1
1
1
1
1
1
1
1
1
1
1
1
1
1
1
1
1
1
1
1
1
1
1
1
1
1
1
1
1
1
1
1
1
1
1
1
1
1
1
1
1
1
1
1
1
1
1
1
1
1
1
1
1
1
1
1
1
1
1
1
1
1
1
1
1
1
1
1
1
1
1
1
1
1
1
1
1
1
1
1
1
1
1
1
1
1
1
1
1
1
1
1
1
1
1
1
1
1
1
1
1
1
1
1
1
1
1
1
1
1
1

SCALARS concentration double
LOOKUP_TABLE default
23.5659
24.4479
24.5019
23.5659
25.0745
26.0133
24.5872
24.9422
27.6165
26.0133
27.6165
26.0133
26.0133
26.2169
26.2169
26.6603
28.9172
28.9172
28.9172
28.3773
28.9172
28.3773
25.9719
25.1009
28.8754
24.5019
27.2245
27.2245
27.0102
27.6165
27.0102
28.4944
27.8739
30.7863
30.7863
28.1173
28.9816
31.4808
30.0743
31.1793
28.4944
28.6293
31.0588
30.7863
34.9488
30.8171
30.0743
30.8171
36.5502
36.5502
30.8171
31.4004
31.4004
30.464
30.464
28.8754
33.2614
31.9102
28.8614
28.8614
34.8919
34.8919
31.8522
35.1132
30.6163
30.6163
31.1793
38.1673
32.0734
32.0734
31.0588
38.4224
34.9488
38.1673
38.1673
32.0734
38.9974
38.7153
39.3731
38.9974
31.3423
31.3423
31.3423
31.8436
34.7841
31.3423
33.2614
34.8919
35.4099
35.4099
37.8047
33.9686
37.8289
36.9723
36.9017
37.8289
33.2614
34.8919
38.4224
40.9464
40.9464
39.3725
40.5367
38.1673
38.1673
38.1673
38.9974
43.7981
34.8417
35.4099
35.3513
36.2655
33.0529
38.2305
40.325
41.7601
38.2305
43.3697
40.8285
41.7251
43.1857
37.8289
43.7114
43.1857
44.7215
44.7215
44.7215

SCALARS fibres double
LOOKUP_TABLE default
0
0
0
0
0
0
0
0
0
0
0
0
0
0
0
0
0
0
0
0
0
0
0
0
0
0
0
0
0
0
0
0
0
0
0
0
0
0
0
0
0
0
0
0
0
0
0
0
0
0
0
0
0
0
0
0
0
0
0
0
0
0
0
0
0
0
0
0
0
0
0
0
0
0
0
0
0
0
0
0
0
0
0
0
0
0
0
0
0
0
0
0
0
0
0
0
0
0
0
0
0
0
0
0
0
0
0
0
0
0
0
0
0
0
0
0
0
0
0
0
0
0
0
0
0
0
0

SCALARS phenot double
LOOKUP_TABLE default
7
7
7
7
7
7
7
7
7
7
7
7
7
7
7
7
7
7
7
7
7
7
7
7
7
7
7
7
7
7
7
7
7
7
7
7
7
7
7
7
7
7
7
7
7
7
7
7
7
7
7
7
7
7
7
7
7
7
7
7
7
7
7
7
7
7
7
7
7
7
7
7
7
7
7
7
7
7
7
7
7
7
7
7
7
7
7
7
7
7
7
7
7
7
7
7
7
7
7
7
7
7
7
7
7
7
7
7
7
7
7
7
7
7
7
7
7
7
7
7
7
7
7
7
7
7
7

SCALARS cont_pheno double
LOOKUP_TABLE default
0.5
0.5
0.5
0.5
0.5
0.5
0.5
0.5
0.5
0.5
0.5
0.5
0.5
0.5
0.5
0.5
0.5
0.5
0.5
0.5
0.5
0.5
0.5
0.5
0.5
0.5
0.5
0.5
0.5
0.5
0.5
0.5
0.5
0.5
0.5
0.5
0.5
0.5
0.5
0.5
0.5
0.5
0.5
0.5
0.5
0.5
0.5
0.5
0.5
0.5
0.5
0.5
0.5
0.5
0.5
0.5
0.5
0.5
0.5
0.5
0.5
0.5
0.5
0.5
0.5
0.5
0.5
0.5
0.5
0.5
0.5
0.5
0.5
0.5
0.5
0.5
0.5
0.5
0.5
0.5
0.5
0.5
0.5
0.5
0.5
0.5
0.5
0.5
0.5
0.5
0.5
0.5
0.5
0.5
0.5
0.5
0.5
0.5
0.5
0.5
0.5
0.5
0.5
0.5
0.5
0.5
0.5
0.5
0.5
0.5
0.5
0.5
0.5
0.5
0.5
0.5
0.5
0.5
0.5
0.5
0.5
0.5
0.5
0.5
0.5
0.5
0.5

SCALARS name double
LOOKUP_TABLE default
93
100
99
163
80
130
121
76
114
144
152
52
122
136
165
43
106
135
161
83
18
150
64
31
158
109
96
139
90
67
132
57
67
156
36
88
17
5
47
62
166
53
151
120
141
13
110
157
78
124
142
35
146
32
164
103
127
33
154
73
116
145
20
27
38
126
153
139
81
150
64
28
91
117
134
113
133
72
98
86
137
104
55
69
9
115
15
39
128
77
94
84
46
74
58
119
159
143
125
25
105
49
41
148
61
161
111
79
34
162
131
50
101
148
82
75
95
29
87
102
24
108
56
118
92
129
155

SCALARS interaction_phenotype double
LOOKUP_TABLE default
0
0
0
0
0
0
0
0
0
0
0
0
0
0
0
0
0
0
0
0
0
0
0
0
0
0
0
0
0
0
0
0
0
0
0
0
0
0
0
0
0
0
0
0
0
0
0
0
0
0
0
0
0
0
0
0
0
0
0
0
0
0
0
0
0
0
0
0
0
0
0
0
0
0
0
0
0
0
0
0
0
0
0
0
0
0
0
0
0
0
0
0
0
0
0
0
0
0
0
0
0
0
0
0
0
0
0
0
0
0
0
0
0
0
0
0
0
0
0
0
0
0
0
0
0
0
0

SCALARS vessel_interaction double
LOOKUP_TABLE default
0
0
0
0
0
0
0
0
0
0
0
0
0
0
0
0
0
0
0
0
0
0
0
0
0
0
0
0
0
0
0
0
0
0
0
0
0
0
0
0
0
0
0
0
0
0
0
0
0
0
0
0
0
0
0
0
0
0
0
0
0
0
0
0
0
0
0
0
0
0
0
0
0
0
0
0
0
0
0
0
0
0
0
0
0
0
0
0
0
0
0
0
0
0
0
0
0
0
0
0
0
0
0
0
0
0
0
0
0
0
0
0
0
0
0
0
0
0
0
0
0
0
0
0
0
0
0

SCALARS is_follower double
LOOKUP_TABLE default
1
1
1
1
1
1
1
1
1
1
1
1
1
1
1
1
1
1
1
1
1
1
1
1
1
1
1
1
1
1
1
1
1
1
1
1
1
1
1
1
1
1
1
1
1
1
1
1
1
1
1
1
1
1
1
1
1
1
1
1
1
1
1
1
1
1
1
1
1
1
1
1
1
1
1
1
1
1
1
1
1
1
1
1
1
1
1
1
1
1
1
1
1
1
1
1
1
1
1
1
1
1
1
1
1
1
1
1
1
1
1
1
1
1
1
1
1
1
1
1
1
1
1
1
1
1
1

SCALARS polarised double
LOOKUP_TABLE default
0
0
0
0
0
0
0
0
0
0
0
0
0
0
0
0
0
0
0
0
0
0
0
0
0
0
0
0
0
0
0
0
0
0
0
0
0
0
0
0
0
0
0
0
0
0
0
0
0
0
0
0
0
0
0
0
0
0
0
0
0
0
0
0
0
0
0
0
0
0
0
0
0
0
0
0
0
0
0
0
0
0
0
0
0
0
0
0
0
0
0
0
0
0
0
0
0
0
0
0
0
0
0
0
0
0
0
0
0
0
0
0
0
0
0
0
0
0
0
0
0
0
0
0
0
0
0

