# vtk DataFile Version 2.0
Unstructured grid legacy vtk file with point scalar data
ASCII

DATASET UNSTRUCTURED_GRID
POINTS 51 double
335.625 337.905 388.441
333.502 341.336 403.355
333.859 354.312 403.678
328.536 357.168 397.955
338.838 335.409 400.825
339.214 336.022 393.665
337.62 345.716 397.992
343.236 343.448 413.996
341.284 344.917 405.108
337.693 337.283 417.726
339.916 355.389 373.005
340.833 348.826 382.055
338.976 354.164 388.704
339.515 353.422 397.015
342.979 354.129 404.546
337.528 350.778 410.026
337.683 348.882 417.785
337.837 356.616 380.939
344.183 360.081 390.714
335.917 360.373 394.558
351.398 345.314 377.923
349.628 343.849 392.137
348.804 348.962 384.761
345.944 351.722 392.741
354.05 353.86 395.042
347.514 346.752 399.856
348.037 348.055 407.896
350.874 347.221 415.397
347.605 347.205 423.384
355.008 362.098 387.161
348.297 367.936 389.007
359.247 338.85 388.767
359.342 338.56 395.423
359.99 344.498 399.919
357.636 350.531 377.143
360.777 349.438 384.887
357.617 346.432 392.262
362.396 352.397 397.226
364.026 350.818 405.035
360.73 356.652 390.379
358.672 360.462 398.242
364.917 359.041 403.889
358.216 359.196 409.464
365.689 345.285 393.806
372.351 343.948 398.553
369.224 348.718 387.228
371.099 351.925 395.183
371.869 354.207 404.076
368.863 357.071 388.561
367.051 359.193 396.373
375.195 359.329 398.434

POINT_DATA 51
SCALARS radius double
LOOKUP_TABLE default
4.48931
5.07271
5.02621
5.02621
5.02621
4.38931
5.03939
5.02621
5.09976
5.02621
5.08931
5.02621
5.07271
5.03939
5.08931
5.09976
5.09976
5.08931
5.07271
5.07271
5.02621
5.07271
5.02621
5.0053
5.08931
5.09976
5.04636
5.08931
5.08931
5.02621
5.02621
4.57271
4.47271
5.0053
5.03939
5.08931
5.02621
5.03939
5.03939
5.07271
5.08931
5.03939
5.03939
5.07271
5.03939
5.08931
5.03939
5.08931
5.03939
5.03939
5.02621

SCALARS status double
LOOKUP_TABLE default
1
1
1
1
1
1
1
1
1
1
1
1
1
1
1
1
1
1
1
1
1
1
1
1
1
1
1
1
1
1
1
1
1
1
1
1
1
1
1
1
1
1
1
1
1
1
1
1
1
1
1

SCALARS concentration double
LOOKUP_TABLE default
25.7024
26.1829
28.4181
27.3863
25.7024
25.7024
29.0396
28.6749
29.0559
25.7264
30.4559
29.6601
29.9508
29.0396
31.2761
28.7305
28.7305
30.4559
33.3889
30.4545
31.3083
30.4978
31.4686
31.7036
35.1081
30.5584
31.481
31.723
31.723
37.9708
37.0699
31.2588
31.2588
33.5749
34.3697
35.6946
33.9412
37.8382
37.4082
38.263
39.2408
41.2122
38.3931
35.7837
36.416
37.7898
40.2552
41.3845
41.981
42.8656
46.4653

SCALARS fibres double
LOOKUP_TABLE default
0
0
0
0
0
0
0
0
0
0
0
0
0
0
0
0
0
0
0
0
0
0
0
0
0
0
0
0
0
0
0
0
0
0
0
0
0
0
0
0
0
0
0
0
0
0
0
0
0
0
0

SCALARS phenot double
LOOKUP_TABLE default
7
7
7
7
7
7
7
7
7
7
7
7
7
7
7
7
7
7
7
7
7
7
7
7
7
7
7
7
7
7
7
7
7
7
7
7
7
7
7
7
7
7
7
7
7
7
7
7
7
7
7

SCALARS cont_pheno double
LOOKUP_TABLE default
0.5
0.5
0.5
0.5
0.5
0.5
0.5
0.5
0.5
0.5
0.5
0.5
0.5
0.5
0.5
0.5
0.5
0.5
0.5
0.5
0.5
0.5
0.5
0.5
0.5
0.5
0.5
0.5
0.5
0.5
0.5
0.5
0.5
0.5
0.5
0.5
0.5
0.5
0.5
0.5
0.5
0.5
0.5
0.5
0.5
0.5
0.5
0.5
0.5
0.5
0.5

SCALARS name double
LOOKUP_TABLE default
69
52
18
43
31
64
67
45
57
59
36
17
51
47
62
53
67
65
37
13
35
32
20
5
27
38
23
33
64
28
60
69
55
15
39
34
3
46
58
25
49
41
61
9
50
48
26
24
29
56
42

SCALARS interaction_phenotype double
LOOKUP_TABLE default
0
0
0
0
0
0
0
0
0
0
0
0
0
0
0
0
0
0
0
0
0
0
0
0
0
0
0
0
0
0
0
0
0
0
0
0
0
0
0
0
0
0
0
0
0
0
0
0
0
0
0

SCALARS vessel_interaction double
LOOKUP_TABLE default
0
0
0
0
0
0
0
0
0
0
0
0
0
0
0
0
0
0
0
0
0
0
0
0
0
0
0
0
0
0
0
0
0
0
0
0
0
0
0
0
0
0
0
0
0
0
0
0
0
0
0

SCALARS is_follower double
LOOKUP_TABLE default
1
1
1
1
1
1
1
1
1
1
1
1
1
1
1
1
1
1
1
1
1
1
1
1
1
1
1
1
1
1
1
1
1
1
1
1
1
1
1
1
1
1
1
1
1
1
1
1
1
1
1

SCALARS polarised double
LOOKUP_TABLE default
0
0
0
0
0
0
0
0
0
0
0
0
0
0
0
0
0
0
0
0
0
0
0
0
0
0
0
0
0
0
0
0
0
0
0
0
0
0
0
0
0
0
0
0
0
0
0
0
0
0
0

