# vtk DataFile Version 2.0
Unstructured grid legacy vtk file with point scalar data
ASCII

DATASET UNSTRUCTURED_GRID
POINTS 44 double
334.629 354.019 404.417
328.889 357.369 398.923
339.746 335.958 399.729
336.458 342.121 403.756
343.312 343.995 413.377
338.369 342.422 419.659
340.895 351.363 381.846
340.921 346.346 389.75
339.254 354.209 389.187
343.88 346.408 400.486
338.344 351.091 397.168
341.815 346.737 403.809
340.05 348.777 408.187
339.798 355.824 374.801
335.846 359.019 394.559
345.191 360.02 389.955
341.408 355.668 410.324
350.872 345.433 378.052
348.767 344.308 392.354
346.645 336.585 395.351
345.934 351.873 393.881
348.085 349.322 385.772
353.294 354.026 394.657
348.963 347.663 408.233
350.038 347.992 416.623
353.34 362.236 388.305
358.896 338.388 394.572
358.494 343.992 399.171
357.554 350.277 377.454
361.565 349.659 384.723
365.377 345.878 394.313
357.366 347.453 391.864
363.455 353.557 398.039
359.94 356.384 390.326
357.681 359.972 398.824
362.553 357.794 405.243
372.043 343.476 398.732
369.709 348.793 387.453
372.663 351.283 395.635
371.766 353.346 404.494
370.266 351.131 411.395
368.402 356.613 389.509
368.155 357.447 395.053
374.349 359.762 397.279

POINT_DATA 44
SCALARS radius double
LOOKUP_TABLE default
5.02621
5.02621
5.07271
5.07271
5.02621
5.07271
5.02621
5.07271
5.07271
4.09976
5.08931
4.09976
5.03939
5.02621
5.07271
5.07271
5.02621
5.02621
5.07271
5.09809
5.0053
5.02621
5.08931
5.04636
5.02621
5.07271
4.6053
4.5053
5.03939
5.08931
5.07271
5.02621
5.08931
5.07271
5.08931
5.08931
5.03939
5.08931
5.03939
4.68931
4.78931
4.23939
4.33939
5.02621

SCALARS status double
LOOKUP_TABLE default
1
1
1
1
1
1
1
1
1
1
1
1
1
1
1
1
1
1
1
1
1
1
1
1
1
1
1
1
1
1
1
1
1
1
1
1
1
1
1
1
1
1
1
1

SCALARS concentration double
LOOKUP_TABLE default
29.0073
29.0073
26.2818
26.2818
30.6782
27.6812
29.9268
28.6278
30.2217
29.741
29.741
29.741
29.741
30.5222
30.2217
33.6183
29.741
30.9037
30.4638
27.7244
32.9747
31.6568
36.3261
31.7788
30.6782
36.0006
33.3776
33.3776
35.5682
35.5682
36.3764
34.4034
36.3261
38.2201
36.3261
36.3261
39.921
40.9003
39.921
39.8169
39.8169
40.9003
40.9003
40.9003

SCALARS fibres double
LOOKUP_TABLE default
0
0
0
0
0
0
0
0
0
0
0
0
0
0
0
0
0
0
0
0
0
0
0
0
0
0
0
0
0
0
0
0
0
0
0
0
0
0
0
0
0
0
0
0

SCALARS phenot double
LOOKUP_TABLE default
7
7
7
7
7
7
7
7
7
7
7
7
7
7
7
7
7
7
7
7
7
7
7
7
7
7
7
7
7
7
7
7
7
7
7
7
7
7
7
7
7
7
7
7

SCALARS cont_pheno double
LOOKUP_TABLE default
0.5
0.5
0.5
0.5
0.5
0.5
0.5
0.5
0.5
0.5
0.5
0.5
0.5
0.5
0.5
0.5
0.5
0.5
0.5
0.5
0.5
0.5
0.5
0.5
0.5
0.5
0.5
0.5
0.5
0.5
0.5
0.5
0.5
0.5
0.5
0.5
0.5
0.5
0.5
0.5
0.5
0.5
0.5
0.5

SCALARS name double
LOOKUP_TABLE default
18
43
31
52
45
30
17
19
51
38
47
57
53
36
13
37
40
35
32
2
5
20
27
23
33
28
55
15
39
34
9
3
46
25
49
41
50
48
26
24
55
29
56
42

SCALARS interaction_phenotype double
LOOKUP_TABLE default
0
0
0
0
0
0
0
0
0
0
0
0
0
0
0
0
0
0
0
0
0
0
0
0
0
0
0
0
0
0
0
0
0
0
0
0
0
0
0
0
0
0
0
0

SCALARS vessel_interaction double
LOOKUP_TABLE default
0
0
0
0
0
0
0
0
0
0
0
0
0
0
0
0
0
0
0
0
0
0
0
0
0
0
0
0
0
0
0
0
0
0
0
0
0
0
0
0
0
0
0
0

SCALARS is_follower double
LOOKUP_TABLE default
1
1
1
1
1
1
1
1
1
1
1
1
1
1
1
1
1
1
1
1
1
1
1
1
1
1
1
1
1
1
1
1
1
1
1
1
1
1
1
1
1
1
1
1

SCALARS polarised double
LOOKUP_TABLE default
0
0
0
0
0
0
0
0
0
0
0
0
0
0
0
0
0
0
0
0
0
0
0
0
0
0
0
0
0
0
0
0
0
0
0
0
0
0
0
0
0
0
0
0

