# vtk DataFile Version 2.0
Unstructured grid legacy vtk file with point scalar data
ASCII

DATASET UNSTRUCTURED_GRID
POINTS 50 double
334.092 341.534 403.411
334.005 353.42 403.673
328.977 357.473 398.409
338.764 335.408 400.536
338.458 336.441 392.907
343.184 343.429 414.148
341.186 345.407 405.259
339.406 343.92 421.913
337.938 337.159 417.66
339.929 355.327 373.413
341.111 349.383 382.073
338.457 354.1 388.61
345.686 351.757 392.606
339.203 352.97 397.156
342.612 354.169 404.556
337.482 346.104 398.168
337.555 350.551 409.828
338.236 348.937 416.65
337.749 356.549 380.549
344.32 360.113 390.604
336.172 359.849 394.583
351 345.213 377.903
349.596 343.922 391.875
348.208 349.01 385.05
353.59 353.856 395.203
347.681 347.129 399.513
348.162 347.672 408.093
351.129 347.235 415.84
347.547 346.802 423.484
355.146 362.129 387.227
348.33 367.641 389.189
359.202 338.731 394.071
359.976 344.475 400.179
357.733 350.235 377
361.076 349.322 384.857
357.517 346.942 392.498
362.037 352.224 397.39
364.057 350.697 405.121
360.792 356.053 390.351
358.87 360.487 397.733
364.64 359.154 404.222
357.763 359.119 409.428
365.529 345.184 393.691
372.15 344.124 398.663
369.272 348.618 387.209
370.913 351.888 395.482
371.676 354.054 403.913
369.164 356.91 388.542
367.068 359.288 396.229
375.204 359.356 398.616

POINT_DATA 50
SCALARS radius double
LOOKUP_TABLE default
5.07271
5.02621
5.02621
4.92621
4.92621
5.02621
5.09976
5.02621
5.02621
4.78931
5.02621
5.07271
5.0053
4.63939
5.08931
4.63939
4.79976
4.79976
4.78931
5.07271
5.07271
5.02621
5.07271
5.02621
5.08931
5.09976
5.04636
4.98931
5.08931
5.02621
5.02621
5.0053
5.0053
5.03939
5.08931
5.02621
5.03939
5.03939
5.07271
5.08931
5.03939
5.03939
5.07271
5.03939
5.08931
5.03939
5.08931
5.03939
5.03939
5.02621

SCALARS status double
LOOKUP_TABLE default
1
1
1
1
1
1
1
1
1
1
1
1
1
1
1
1
1
1
1
1
1
1
1
1
1
1
1
1
1
1
1
1
1
1
1
1
1
1
1
1
1
1
1
1
1
1
1
1
1
1

SCALARS concentration double
LOOKUP_TABLE default
26.1829
28.4181
27.3863
25.7024
25.7024
28.6749
29.0559
27.6543
25.7264
30.4559
29.6601
29.9508
31.7036
29.0396
31.2761
29.0396
28.7305
28.7305
30.4559
33.3889
30.4545
31.3083
30.4978
31.4686
35.1081
30.5584
31.481
31.723
31.723
37.9708
37.0699
31.2588
33.5749
34.3697
35.6946
33.9412
37.8382
37.4082
38.263
39.2408
41.2122
38.3931
35.7837
36.416
37.7898
40.2552
41.3845
41.981
42.8656
46.4653

SCALARS fibres double
LOOKUP_TABLE default
0
0
0
0
0
0
0
0
0
0
0
0
0
0
0
0
0
0
0
0
0
0
0
0
0
0
0
0
0
0
0
0
0
0
0
0
0
0
0
0
0
0
0
0
0
0
0
0
0
0

SCALARS phenot double
LOOKUP_TABLE default
7
7
7
7
7
7
7
7
7
7
7
7
7
7
7
7
7
7
7
7
7
7
7
7
7
7
7
7
7
7
7
7
7
7
7
7
7
7
7
7
7
7
7
7
7
7
7
7
7
7

SCALARS cont_pheno double
LOOKUP_TABLE default
0.5
0.5
0.5
0.5
0.5
0.5
0.5
0.5
0.5
0.5
0.5
0.5
0.5
0.5
0.5
0.5
0.5
0.5
0.5
0.5
0.5
0.5
0.5
0.5
0.5
0.5
0.5
0.5
0.5
0.5
0.5
0.5
0.5
0.5
0.5
0.5
0.5
0.5
0.5
0.5
0.5
0.5
0.5
0.5
0.5
0.5
0.5
0.5
0.5
0.5

SCALARS name double
LOOKUP_TABLE default
52
18
43
31
64
45
57
30
59
36
17
51
5
47
62
67
53
67
65
37
13
35
32
20
27
38
23
33
64
28
60
55
15
39
34
3
46
58
25
49
41
61
9
50
48
26
24
29
56
42

SCALARS interaction_phenotype double
LOOKUP_TABLE default
0
0
0
0
0
0
0
0
0
0
0
0
0
0
0
0
0
0
0
0
0
0
0
0
0
0
0
0
0
0
0
0
0
0
0
0
0
0
0
0
0
0
0
0
0
0
0
0
0
0

SCALARS vessel_interaction double
LOOKUP_TABLE default
0
0
0
0
0
0
0
0
0
0
0
0
0
0
0
0
0
0
0
0
0
0
0
0
0
0
0
0
0
0
0
0
0
0
0
0
0
0
0
0
0
0
0
0
0
0
0
0
0
0

SCALARS is_follower double
LOOKUP_TABLE default
1
1
1
1
1
1
1
1
1
1
1
1
1
1
1
1
1
1
1
1
1
1
1
1
1
1
1
1
1
1
1
1
1
1
1
1
1
1
1
1
1
1
1
1
1
1
1
1
1
1

SCALARS polarised double
LOOKUP_TABLE default
0
0
0
0
0
0
0
0
0
0
0
0
0
0
0
0
0
0
0
0
0
0
0
0
0
0
0
0
0
0
0
0
0
0
0
0
0
0
0
0
0
0
0
0
0
0
0
0
0
0

