# vtk DataFile Version 2.0
Unstructured grid legacy vtk file with point scalar data
ASCII

DATASET UNSTRUCTURED_GRID
POINTS 32 double
333.931 355.623 403.724
345.7 337.313 395.237
339.494 337.622 400.603
345.055 343.677 401.545
341.703 344.887 409.109
339.555 342.779 416.806
340.165 351.764 383.367
340.101 354.901 375.381
339.972 346.93 390.212
339.095 354.218 394.215
341.365 350.437 400.333
339.334 351.102 406.679
344.663 359.314 390.308
349.385 345.453 378.789
347.736 345.185 393.275
347.619 349.782 386.385
347.736 353.576 396.464
353.256 347.258 399.364
355.12 354.575 396.301
349.253 347.618 407.207
346.868 347.177 415.563
352.418 359.739 386.564
360.613 343.063 398.192
357.174 353.615 381.827
362.657 348.388 385.572
357.496 348.113 392.227
359.897 356.227 389.881
359.929 356.645 399.901
366.235 346.825 392.814
367.97 355.308 392.605
373.647 349.831 396.414
370.353 352.019 406.401

POINT_DATA 32
SCALARS radius double
LOOKUP_TABLE default
5.07271
5.09809
5.0053
5.0053
5.0053
5.07271
5.02621
5.02621
5.07271
5.0053
4.52621
4.52621
5.07271
5.02621
5.07271
5.02621
5.0053
5.04636
4.32621
5.04636
5.07271
5.07271
5.04636
5.08931
5.08931
5.02621
5.07271
4.32621
5.07271
5.07271
5.08931
5.02621

SCALARS status double
LOOKUP_TABLE default
1
1
1
1
1
1
1
1
1
1
1
1
1
1
1
1
1
1
1
1
1
1
1
1
1
1
1
1
1
1
1
1

SCALARS concentration double
LOOKUP_TABLE default
29.0073
27.7244
26.2818
29.2038
28.7415
27.6812
29.9268
30.5222
28.6278
30.2217
29.741
29.741
33.6183
30.9037
30.4638
31.6568
32.9747
32.639
36.3261
31.7788
30.6782
36.0006
33.3776
35.5682
35.5682
34.4034
38.2201
36.3261
36.3764
40.9003
39.921
39.8169

SCALARS fibres double
LOOKUP_TABLE default
0
0
0
0
0
0
0
0
0
0
0
0
0
0
0
0
0
0
0
0
0
0
0
0
0
0
0
0
0
0
0
0

SCALARS phenot double
LOOKUP_TABLE default
7
7
7
7
7
7
7
7
7
7
7
7
7
7
7
7
7
7
7
7
7
7
7
7
7
7
7
7
7
7
7
7

SCALARS cont_pheno double
LOOKUP_TABLE default
0.5
0.5
0.5
0.5
0.5
0.5
0.5
0.5
0.5
0.5
0.5
0.5
0.5
0.5
0.5
0.5
0.5
0.5
0.5
0.5
0.5
0.5
0.5
0.5
0.5
0.5
0.5
0.5
0.5
0.5
0.5
0.5

SCALARS name double
LOOKUP_TABLE default
18
2
31
12
22
30
17
36
19
13
38
40
37
35
32
20
5
6
27
23
33
28
15
39
34
3
25
41
9
29
26
24

SCALARS interaction_phenotype double
LOOKUP_TABLE default
0
0
0
0
0
0
0
0
0
0
0
0
0
0
0
0
0
0
0
0
0
0
0
0
0
0
0
0
0
0
0
0

SCALARS vessel_interaction double
LOOKUP_TABLE default
0
0
0
0
0
0
0
0
0
0
0
0
0
0
0
0
0
0
0
0
0
0
0
0
0
0
0
0
0
0
0
0

SCALARS is_follower double
LOOKUP_TABLE default
1
1
1
1
1
1
1
1
1
1
1
1
1
1
1
1
1
1
1
1
1
1
1
1
1
1
1
1
1
1
1
1

SCALARS polarised double
LOOKUP_TABLE default
0
0
0
0
0
0
0
0
0
0
0
0
0
0
0
0
0
0
0
0
0
0
0
0
0
0
0
0
0
0
0
0

