# vtk DataFile Version 2.0
Unstructured grid legacy vtk file with point scalar data
ASCII

DATASET UNSTRUCTURED_GRID
POINTS 73 double
333.741 336.61 384.606
334.464 337.764 392.583
327.565 339.077 391.326
334.122 337.191 400.491
332.568 343.7 405.874
334.969 354.649 403.963
327.266 355.423 396.371
329.189 360.636 402.584
342.988 333.639 393.207
340.358 331.214 402.492
340.371 339.221 393.914
337.794 344.974 397.198
342.518 339.034 400.464
341.075 344.575 405.702
337.885 338.573 416.71
340.399 347.539 385.081
336.351 349.061 377.484
345.3 351.57 391.171
339.811 353.223 397.066
343.071 352.947 405.027
337.415 350.096 411.032
336.751 346.897 419.061
340.229 355.764 372.792
339.095 355.671 381.694
342.813 359.681 391.689
336.439 361.066 397.332
351.32 345.645 376.947
349.175 344.16 391.447
352.29 345.669 414.433
347.383 340.154 427.027
349.345 348.802 384.146
354.117 354.311 393.566
345.747 347.523 398.871
347.16 351.577 417.595
346.332 348.581 425.533
349.823 358.163 388.541
346.568 370.196 378.948
352.947 368.015 384.497
348.002 366.377 391.65
350.502 371.475 388.577
348.693 375.584 386.792
359.281 339.702 387.879
364.83 344.944 393.449
360.452 337.974 396.254
360.333 343.034 403.143
358.186 350.77 375.731
362.778 347.138 381.634
360.743 349.584 388.601
361.417 354.143 394.058
362.715 353.342 400.376
357.374 347.59 396.567
361.933 350.707 408.7
356.53 360.814 384.182
361.782 360.091 390.001
357.951 360.957 397.823
362.513 358.939 405.056
357.679 358.122 411.187
362.523 367.363 393.241
363.491 366.782 401.898
374.329 342.918 400.304
365.791 345.256 397.851
368.861 352.885 380.283
369.184 348.53 387.568
368.686 355.079 393.467
372.582 349.236 395.595
366.636 347.862 402.049
370.722 355.113 401.593
371.684 347.602 406.396
374.993 354.285 408.506
369.217 358.346 386.62
366.376 361.18 397.275
376.579 342.573 392.567
376.282 357.28 392.437

POINT_DATA 73
SCALARS radius double
LOOKUP_TABLE default
5.03939
5.09976
5.09976
5.08931
5.02621
5.02621
5.08931
5.08931
4.43939
5.02621
4.43939
5.03939
5.08931
5.09976
5.02621
5.08931
5.08931
5.0053
5.03939
5.08931
5.09976
5.09976
5.08931
5.08931
5.07271
5.02621
5.02621
5.07271
5.08931
5.03939
5.02621
5.03939
5.09976
5.09976
5.09976
5.03939
5.03939
5.08931
5.08931
4.09976
4.09976
5.07271
4.12621
5.07271
5.0053
5.03939
5.03939
5.03939
5.04768
5.04768
5.09976
5.09976
5.08931
5.07271
5.08931
5.03939
5.03939
5.04768
5.04768
5.06831
4.12621
5.09976
5.08931
5.00635
5.03939
5.04768
5.03939
5.04768
5.03939
5.09976
5.04768
5.06831
5.00635

SCALARS status double
LOOKUP_TABLE default
1
1
1
1
1
1
1
1
1
1
1
1
1
1
1
1
1
1
1
1
1
1
1
1
1
1
1
1
1
1
1
1
1
1
1
1
1
1
1
1
1
1
1
1
1
1
1
1
1
1
1
1
1
1
1
1
1
1
1
1
1
1
1
1
1
1
1
1
1
1
1
1
1

SCALARS concentration double
LOOKUP_TABLE default
25.7024
25.7024
25.7024
26.1829
26.1829
28.4181
27.3863
27.3863
25.7024
25.7024
25.7024
29.0396
26.1829
29.0559
25.7264
29.6601
29.6601
31.7036
29.0396
31.2761
28.7305
28.7305
30.4559
30.4559
33.3889
30.4545
31.3083
30.4978
31.723
31.723
31.4686
35.1081
30.5584
31.723
31.723
35.1081
37.0699
37.9708
37.0699
37.0699
37.0699
31.2588
35.7837
31.2588
33.5749
34.3697
35.6946
35.6946
37.8382
37.8382
37.8382
37.4082
37.9708
38.263
39.2408
41.2122
38.3931
42.8656
42.8656
36.416
35.7837
41.981
37.7898
42.8656
40.2552
37.4082
41.3845
37.4082
41.3845
41.981
42.8656
36.416
42.8656

SCALARS fibres double
LOOKUP_TABLE default
0
0
0
0
0
0
0
0
0
0
0
0
0
0
0
0
0
0
0
0
0
0
0
0
0
0
0
0
0
0
0
0
0
0
0
0
0
0
0
0
0
0
0
0
0
0
0
0
0
0
0
0
0
0
0
0
0
0
0
0
0
0
0
0
0
0
0
0
0
0
0
0
0

SCALARS phenot double
LOOKUP_TABLE default
7
7
7
7
7
7
7
7
7
7
7
7
7
7
7
7
7
7
7
7
7
7
7
7
7
7
7
7
7
7
7
7
7
7
7
7
7
7
7
7
7
7
7
7
7
7
7
7
7
7
7
7
7
7
7
7
7
7
7
7
7
7
7
7
7
7
7
7
7
7
7
7
7

SCALARS cont_pheno double
LOOKUP_TABLE default
0.5
0.5
0.5
0.5
0.5
0.5
0.5
0.5
0.5
0.5
0.5
0.5
0.5
0.5
0.5
0.5
0.5
0.5
0.5
0.5
0.5
0.5
0.5
0.5
0.5
0.5
0.5
0.5
0.5
0.5
0.5
0.5
0.5
0.5
0.5
0.5
0.5
0.5
0.5
0.5
0.5
0.5
0.5
0.5
0.5
0.5
0.5
0.5
0.5
0.5
0.5
0.5
0.5
0.5
0.5
0.5
0.5
0.5
0.5
0.5
0.5
0.5
0.5
0.5
0.5
0.5
0.5
0.5
0.5
0.5
0.5
0.5
0.5

SCALARS name double
LOOKUP_TABLE default
69
76
93
80
52
18
43
83
64
31
96
67
90
57
59
17
88
5
47
62
53
67
36
65
37
13
35
32
33
73
20
27
38
81
64
91
78
86
60
98
72
69
9
55
15
39
34
77
94
46
84
58
28
25
49
41
61
79
70
50
99
82
48
87
26
74
75
95
24
29
56
89
92

SCALARS interaction_phenotype double
LOOKUP_TABLE default
0
0
0
0
0
0
0
0
0
0
0
0
0
0
0
0
0
0
0
0
0
0
0
0
0
0
0
0
0
0
0
0
0
0
0
0
0
0
0
0
0
0
0
0
0
0
0
0
0
0
0
0
0
0
0
0
0
0
0
0
0
0
0
0
0
0
0
0
0
0
0
0
0

SCALARS vessel_interaction double
LOOKUP_TABLE default
0
0
0
0
0
0
0
0
0
0
0
0
0
0
0
0
0
0
0
0
0
0
0
0
0
0
0
0
0
0
0
0
0
0
0
0
0
0
0
0
0
0
0
0
0
0
0
0
0
0
0
0
0
0
0
0
0
0
0
0
0
0
0
0
0
0
0
0
0
0
0
0
0

SCALARS is_follower double
LOOKUP_TABLE default
1
1
1
1
1
1
1
1
1
1
1
1
1
1
1
1
1
1
1
1
1
1
1
1
1
1
1
1
1
1
1
1
1
1
1
1
1
1
1
1
1
1
1
1
1
1
1
1
1
1
1
1
1
1
1
1
1
1
1
1
1
1
1
1
1
1
1
1
1
1
1
1
1

SCALARS polarised double
LOOKUP_TABLE default
0
0
0
0
0
0
0
0
0
0
0
0
0
0
0
0
0
0
0
0
0
0
0
0
0
0
0
0
0
0
0
0
0
0
0
0
0
0
0
0
0
0
0
0
0
0
0
0
0
0
0
0
0
0
0
0
0
0
0
0
0
0
0
0
0
0
0
0
0
0
0
0
0

