# vtk DataFile Version 2.0
Unstructured grid legacy vtk file with point scalar data
ASCII

DATASET UNSTRUCTURED_GRID
POINTS 27 double
335.759 354.561 403.206
345.67 343.575 401.059
340.132 337.412 400.515
341.672 345.169 408.412
339.597 343.357 416.985
340.638 351.777 382.473
340.211 347.74 389.193
339.107 353.138 395.189
346.385 338.156 394.527
354.296 341.093 392.641
348.092 348.145 384.274
347.673 354.317 394.966
347.696 346.221 392.352
352.432 346.8 398.597
345.973 346.675 414.815
350.012 347.522 406.793
350.014 359.037 388.4
360.509 343.826 397.361
358.756 348.213 391.545
360.484 349.417 386.745
356.216 353.631 396.664
359.737 356.339 389.604
368.253 354.72 391.827
367.241 346.146 391.92
365.866 350.46 399.176
373.969 350.415 396.743
369.91 352.694 406.646

POINT_DATA 27
SCALARS radius double
LOOKUP_TABLE default
5.0053
5.0053
5.0053
5.0053
4.77271
5.07271
5.07271
5.0053
5.09809
5.03728
5.07271
5.0053
5.07271
5.04636
4.77271
5.04636
5.0053
5.04636
4.12621
4.12621
5.07271
5.07271
5.07271
5.07271
5.08931
5.08931
5.02621

SCALARS status double
LOOKUP_TABLE default
1
1
1
1
1
1
1
1
1
1
1
1
1
1
1
1
1
1
1
1
1
1
1
1
1
1
1

SCALARS concentration double
LOOKUP_TABLE default
29.6347
28.8746
28.8746
28.7218
28.7218
29.6663
30.1279
29.6007
28.7816
30.841
31.6061
33.4574
30.1279
32.2052
28.7218
32.3133
33.4574
33.6599
35.1149
35.1149
35.1149
35.1149
35.1149
36.2966
38.6303
38.6303
39.5824

SCALARS fibres double
LOOKUP_TABLE default
0
0
0
0
0
0
0
0
0
0
0
0
0
0
0
0
0
0
0
0
0
0
0
0
0
0
0

SCALARS phenot double
LOOKUP_TABLE default
7
7
7
7
7
7
7
7
7
7
7
7
7
7
7
7
7
7
7
7
7
7
7
7
7
7
7

SCALARS cont_pheno double
LOOKUP_TABLE default
0.5
0.5
0.5
0.5
0.5
0.5
0.5
0.5
0.5
0.5
0.5
0.5
0.5
0.5
0.5
0.5
0.5
0.5
0.5
0.5
0.5
0.5
0.5
0.5
0.5
0.5
0.5

SCALARS name double
LOOKUP_TABLE default
18
12
31
22
30
17
19
13
2
8
20
5
32
6
33
23
28
15
3
34
27
25
29
9
16
26
24

SCALARS interaction_phenotype double
LOOKUP_TABLE default
0
0
0
0
0
0
0
0
0
0
0
0
0
0
0
0
0
0
0
0
0
0
0
0
0
0
0

SCALARS vessel_interaction double
LOOKUP_TABLE default
0
0
0
0
0
0
0
0
0
0
0
0
0
0
0
0
0
0
0
0
0
0
0
0
0
0
0

SCALARS is_follower double
LOOKUP_TABLE default
1
1
1
1
1
1
1
1
1
1
1
1
1
1
1
1
1
1
1
1
1
1
1
1
1
1
1

SCALARS polarised double
LOOKUP_TABLE default
0
0
0
0
0
0
0
0
0
0
0
0
0
0
0
0
0
0
0
0
0
0
0
0
0
0
0

