# vtk DataFile Version 2.0
Unstructured grid legacy vtk file with point scalar data
ASCII

DATASET UNSTRUCTURED_GRID
POINTS 49 double
335.718 342.062 404.306
334.506 354.075 404.182
328.716 357.244 398.447
339.034 335.752 398.946
343.287 343.582 413.867
338.311 343.886 420.362
337.359 337.33 417.536
339.851 355.571 374.873
341.022 350.875 381.966
340.945 346.334 389.665
338.8 354.574 388.84
345.554 352.107 393.305
338.327 350.708 397.193
341.944 346.691 403.851
338.395 349.097 410.082
341.594 354.01 405.914
344.825 359.724 390.78
336.18 359.373 395.119
341.888 356.985 411.053
351.124 344.934 378.075
349.132 344.286 392.004
346.806 336.265 395.313
347.956 349.039 385.412
353.274 354.004 394.817
346.289 346.421 398.363
349.126 347.325 408.551
350.202 347.76 417.122
354.75 361.494 388.051
349.116 365.493 389.313
359.334 338.247 394.615
358.835 344.854 400.075
357.497 349.971 377.303
361.375 349.775 384.795
357.359 347.294 392.174
363.381 352.778 396.351
362.565 351.639 403.081
360.349 356.234 390.439
358.034 359.853 398.868
363.541 358.43 404.755
358.678 358.49 409.085
372.253 343.727 398.585
365.573 346.087 394.302
369.781 349.08 387.223
372.154 351.553 395.64
372.04 353.923 403.982
370.207 350.974 411.828
368.199 356.895 388.427
367.269 358.968 395.921
374.979 359.889 397.806

POINT_DATA 49
SCALARS radius double
LOOKUP_TABLE default
5.07271
5.02621
5.02621
5.07271
5.02621
4.52621
4.62621
5.02621
5.02621
5.07271
5.07271
5.0053
5.08931
4.99976
5.03939
4.18931
5.07271
5.07271
4.28931
5.02621
5.07271
5.09809
5.02621
5.08931
4.99976
5.04636
5.02621
4.52621
4.52621
5.0053
5.0053
5.03939
5.08931
5.02621
4.73939
4.73939
5.07271
5.08931
4.33939
4.43939
5.03939
5.07271
5.08931
5.03939
5.08931
5.08931
5.03939
5.03939
5.02621

SCALARS status double
LOOKUP_TABLE default
1
1
1
1
1
1
1
1
1
1
1
1
1
1
1
1
1
1
1
1
1
1
1
1
1
1
1
1
1
1
1
1
1
1
1
1
1
1
1
1
1
1
1
1
1
1
1
1
1

SCALARS concentration double
LOOKUP_TABLE default
26.2818
29.0073
29.0073
26.2818
30.6782
27.6812
27.6812
30.5222
29.9268
28.6278
30.2217
32.9747
29.741
29.741
29.741
29.741
33.6183
30.2217
29.741
30.9037
30.4638
27.7244
31.6568
36.3261
29.741
31.7788
30.6782
36.0006
36.0006
33.3776
33.3776
35.5682
35.5682
34.4034
36.3261
36.3261
38.2201
36.3261
36.3261
36.3261
39.921
36.3764
40.9003
39.921
39.8169
39.8169
40.9003
40.9003
40.9003

SCALARS fibres double
LOOKUP_TABLE default
0
0
0
0
0
0
0
0
0
0
0
0
0
0
0
0
0
0
0
0
0
0
0
0
0
0
0
0
0
0
0
0
0
0
0
0
0
0
0
0
0
0
0
0
0
0
0
0
0

SCALARS phenot double
LOOKUP_TABLE default
7
7
7
7
7
7
7
7
7
7
7
7
7
7
7
7
7
7
7
7
7
7
7
7
7
7
7
7
7
7
7
7
7
7
7
7
7
7
7
7
7
7
7
7
7
7
7
7
7

SCALARS cont_pheno double
LOOKUP_TABLE default
0.5
0.5
0.5
0.5
0.5
0.5
0.5
0.5
0.5
0.5
0.5
0.5
0.5
0.5
0.5
0.5
0.5
0.5
0.5
0.5
0.5
0.5
0.5
0.5
0.5
0.5
0.5
0.5
0.5
0.5
0.5
0.5
0.5
0.5
0.5
0.5
0.5
0.5
0.5
0.5
0.5
0.5
0.5
0.5
0.5
0.5
0.5
0.5
0.5

SCALARS name double
LOOKUP_TABLE default
52
18
43
31
45
30
59
36
17
19
51
5
47
57
53
62
37
13
40
35
32
2
20
27
38
23
33
28
60
55
15
39
34
3
46
58
25
49
41
61
50
9
48
26
24
55
29
56
42

SCALARS interaction_phenotype double
LOOKUP_TABLE default
0
0
0
0
0
0
0
0
0
0
0
0
0
0
0
0
0
0
0
0
0
0
0
0
0
0
0
0
0
0
0
0
0
0
0
0
0
0
0
0
0
0
0
0
0
0
0
0
0

SCALARS vessel_interaction double
LOOKUP_TABLE default
0
0
0
0
0
0
0
0
0
0
0
0
0
0
0
0
0
0
0
0
0
0
0
0
0
0
0
0
0
0
0
0
0
0
0
0
0
0
0
0
0
0
0
0
0
0
0
0
0

SCALARS is_follower double
LOOKUP_TABLE default
1
1
1
1
1
1
1
1
1
1
1
1
1
1
1
1
1
1
1
1
1
1
1
1
1
1
1
1
1
1
1
1
1
1
1
1
1
1
1
1
1
1
1
1
1
1
1
1
1

SCALARS polarised double
LOOKUP_TABLE default
0
0
0
0
0
0
0
0
0
0
0
0
0
0
0
0
0
0
0
0
0
0
0
0
0
0
0
0
0
0
0
0
0
0
0
0
0
0
0
0
0
0
0
0
0
0
0
0
0

