# vtk DataFile Version 2.0
Unstructured grid legacy vtk file with point scalar data
ASCII

DATASET UNSTRUCTURED_GRID
POINTS 48 double
334.499 341.58 403.589
334.058 353.559 404.215
328.738 357.402 398.93
338.857 335.692 398.638
342.935 343.574 413.804
339.089 344.143 421.578
337.944 336.644 417.606
340.614 350.038 381.767
340.989 346.023 389.906
338.739 353.967 388.673
338.742 350.929 397.14
341.353 346.092 404.71
342.06 354.578 404.564
337.664 349.831 411.179
339.274 355.665 375.402
344.287 359.996 390.939
336.135 359.232 394.785
341.029 357.738 412.658
351.062 345.027 378.074
349.44 343.628 391.837
346.802 336.299 395.547
345.846 351.831 392.755
348.069 348.613 385.299
353.823 353.761 395.389
347.034 346.589 399.125
348.835 347.2 408.408
350.015 347.269 417.337
354.89 361.72 387.62
348.836 367.071 388.91
359.341 338.81 394.546
359.761 345.008 400.214
358.052 349.689 377.275
361.114 349.508 385.075
357.534 347.129 391.9
362.531 352.44 397.008
363.331 350.817 404.822
360.318 356.016 390.496
358.668 360.558 398.096
365.125 359.364 404.41
357.764 358.919 409.379
365.743 345.437 393.875
372.206 343.552 398.557
369.446 349.035 386.907
371.265 351.902 395.113
371.499 353.648 403.282
368.951 357.25 388.897
366.568 359.571 396.189
375.192 359.61 398.455

POINT_DATA 48
SCALARS radius double
LOOKUP_TABLE default
5.07271
5.02621
5.02621
5.07271
5.02621
5.02621
5.02621
5.02621
5.07271
5.07271
5.08931
5.09976
5.08931
5.03939
5.02621
5.07271
5.07271
5.08931
5.02621
5.07271
5.09809
5.0053
5.02621
5.08931
5.09976
5.04636
5.02621
5.02621
5.02621
5.0053
5.0053
5.03939
5.08931
5.02621
5.03939
5.03939
5.07271
5.08931
5.03939
5.03939
5.07271
5.03939
5.08931
5.03939
5.08931
5.03939
5.03939
5.02621

SCALARS status double
LOOKUP_TABLE default
1
1
1
1
1
1
1
1
1
1
1
1
1
1
1
1
1
1
1
1
1
1
1
1
1
1
1
1
1
1
1
1
1
1
1
1
1
1
1
1
1
1
1
1
1
1
1
1

SCALARS concentration double
LOOKUP_TABLE default
26.1829
28.4181
27.3863
25.7024
28.6749
27.6543
25.7264
29.6601
28.6498
29.9508
29.0396
29.0559
31.2761
28.7305
30.4559
33.3889
30.4545
31.7221
31.3083
30.4978
27.6916
31.7036
31.4686
35.1081
30.5584
31.481
31.723
37.9708
37.0699
31.2588
33.5749
34.3697
35.6946
33.9412
37.8382
37.4082
38.263
39.2408
41.2122
38.3931
35.7837
36.416
37.7898
40.2552
41.3845
41.981
42.8656
46.4653

SCALARS fibres double
LOOKUP_TABLE default
0
0
0
0
0
0
0
0
0
0
0
0
0
0
0
0
0
0
0
0
0
0
0
0
0
0
0
0
0
0
0
0
0
0
0
0
0
0
0
0
0
0
0
0
0
0
0
0

SCALARS phenot double
LOOKUP_TABLE default
7
7
7
7
7
7
7
7
7
7
7
7
7
7
7
7
7
7
7
7
7
7
7
7
7
7
7
7
7
7
7
7
7
7
7
7
7
7
7
7
7
7
7
7
7
7
7
7

SCALARS cont_pheno double
LOOKUP_TABLE default
0.5
0.5
0.5
0.5
0.5
0.5
0.5
0.5
0.5
0.5
0.5
0.5
0.5
0.5
0.5
0.5
0.5
0.5
0.5
0.5
0.5
0.5
0.5
0.5
0.5
0.5
0.5
0.5
0.5
0.5
0.5
0.5
0.5
0.5
0.5
0.5
0.5
0.5
0.5
0.5
0.5
0.5
0.5
0.5
0.5
0.5
0.5
0.5

SCALARS name double
LOOKUP_TABLE default
52
18
43
31
45
30
59
17
19
51
47
57
62
53
36
37
13
40
35
32
2
5
20
27
38
23
33
28
60
55
15
39
34
3
46
58
25
49
41
61
9
50
48
26
24
29
56
42

SCALARS interaction_phenotype double
LOOKUP_TABLE default
0
0
0
0
0
0
0
0
0
0
0
0
0
0
0
0
0
0
0
0
0
0
0
0
0
0
0
0
0
0
0
0
0
0
0
0
0
0
0
0
0
0
0
0
0
0
0
0

SCALARS vessel_interaction double
LOOKUP_TABLE default
0
0
0
0
0
0
0
0
0
0
0
0
0
0
0
0
0
0
0
0
0
0
0
0
0
0
0
0
0
0
0
0
0
0
0
0
0
0
0
0
0
0
0
0
0
0
0
0

SCALARS is_follower double
LOOKUP_TABLE default
1
1
1
1
1
1
1
1
1
1
1
1
1
1
1
1
1
1
1
1
1
1
1
1
1
1
1
1
1
1
1
1
1
1
1
1
1
1
1
1
1
1
1
1
1
1
1
1

SCALARS polarised double
LOOKUP_TABLE default
0
0
0
0
0
0
0
0
0
0
0
0
0
0
0
0
0
0
0
0
0
0
0
0
0
0
0
0
0
0
0
0
0
0
0
0
0
0
0
0
0
0
0
0
0
0
0
0

