# vtk DataFile Version 2.0
Unstructured grid legacy vtk file with point scalar data
ASCII

DATASET UNSTRUCTURED_GRID
POINTS 30 double
335.382 354.545 403.006
339.482 337.205 400.02
345.543 343.114 401.089
341.191 345.503 408.642
339.121 343.168 417.044
340.86 351.369 383.278
340.575 354.547 376.684
340.464 346.937 389.584
339.439 353.765 395.054
339.194 351.978 401.372
345.778 337.255 394.412
347.525 345.664 393.441
349.126 345.961 378.692
348.301 349.029 386.226
347.614 353.84 395.779
353.057 346.934 399.402
349.384 347.615 406.992
346.597 346.487 415.588
351.453 359.843 388.02
346.334 358.657 391.003
361.004 343.354 397.709
361.034 349.816 384.735
357.891 348.172 391.993
356.057 355.037 397.278
360.26 356.651 389.895
366.521 346.894 391.781
365.784 350.402 399.251
373.847 349.647 396.209
369.99 352.028 406.765
368.47 355.861 392.869

POINT_DATA 30
SCALARS radius double
LOOKUP_TABLE default
4.07271
5.0053
5.0053
5.0053
5.07271
5.02621
5.02621
5.07271
5.0053
4.07271
5.09809
5.07271
5.02621
5.02621
5.0053
5.04636
5.04636
5.07271
4.17271
4.27271
5.04636
5.02621
5.02621
5.07271
5.07271
5.07271
5.08931
5.08931
5.02621
5.07271

SCALARS status double
LOOKUP_TABLE default
1
1
1
1
1
1
1
1
1
1
1
1
1
1
1
1
1
1
1
1
1
1
1
1
1
1
1
1
1
1

SCALARS concentration double
LOOKUP_TABLE default
29.6347
28.8746
28.8746
28.7218
28.7218
29.6663
29.6663
30.1279
29.6007
29.6347
28.7816
30.1279
31.6061
31.6061
33.4574
32.2052
32.3133
28.7218
33.4574
33.4574
33.6599
35.1149
35.1149
35.1149
35.1149
36.2966
38.6303
38.6303
39.5824
35.1149

SCALARS fibres double
LOOKUP_TABLE default
0
0
0
0
0
0
0
0
0
0
0
0
0
0
0
0
0
0
0
0
0
0
0
0
0
0
0
0
0
0

SCALARS phenot double
LOOKUP_TABLE default
7
7
7
7
7
7
7
7
7
7
7
7
7
7
7
7
7
7
7
7
7
7
7
7
7
7
7
7
7
7

SCALARS cont_pheno double
LOOKUP_TABLE default
0.5
0.5
0.5
0.5
0.5
0.5
0.5
0.5
0.5
0.5
0.5
0.5
0.5
0.5
0.5
0.5
0.5
0.5
0.5
0.5
0.5
0.5
0.5
0.5
0.5
0.5
0.5
0.5
0.5
0.5

SCALARS name double
LOOKUP_TABLE default
18
31
12
22
30
17
36
19
13
38
2
32
35
20
5
6
23
33
28
37
15
34
3
27
25
9
16
26
24
29

SCALARS interaction_phenotype double
LOOKUP_TABLE default
0
0
0
0
0
0
0
0
0
0
0
0
0
0
0
0
0
0
0
0
0
0
0
0
0
0
0
0
0
0

SCALARS vessel_interaction double
LOOKUP_TABLE default
0
0
0
0
0
0
0
0
0
0
0
0
0
0
0
0
0
0
0
0
0
0
0
0
0
0
0
0
0
0

SCALARS is_follower double
LOOKUP_TABLE default
1
1
1
1
1
1
1
1
1
1
1
1
1
1
1
1
1
1
1
1
1
1
1
1
1
1
1
1
1
1

SCALARS polarised double
LOOKUP_TABLE default
0
0
0
0
0
0
0
0
0
0
0
0
0
0
0
0
0
0
0
0
0
0
0
0
0
0
0
0
0
0

