# vtk DataFile Version 2.0
Unstructured grid legacy vtk file with point scalar data
ASCII

DATASET UNSTRUCTURED_GRID
POINTS 57 double
334.958 337.16 387.935
333.731 341.159 403.815
334.793 355.386 403.788
331.815 358.947 389.846
329.123 357.794 397.742
341.305 335.403 393.95
338.705 334.408 402.499
338.02 344.848 397.423
343.186 343.893 413.569
341.102 345.041 405.537
337.66 338.554 417.165
340.397 355.484 372.948
340.615 348.292 382.343
338.139 353.166 388.775
339.61 353.259 396.97
343.245 353.36 404.742
337.66 350.809 410.697
337.546 347.99 418.393
338.59 357.009 380.986
342.895 360.153 391.427
336.708 361.206 396.461
349.218 344.558 392.24
347.711 341.158 425.193
350.773 346.274 377.283
348.707 349.206 385.067
345.983 352.327 392.347
353.65 353.668 394.251
345.966 347.521 399.312
348.632 347.818 407.836
351.14 347.077 415.686
347.265 349.555 422.853
354.82 363.305 385.584
348.69 372.239 384.314
348.349 366.063 390.619
359.501 338.95 387.753
360.094 338.089 396.008
359.309 345.455 401.145
358.353 350.491 377.04
361.09 349.823 385.538
357.463 345.98 392.627
361.851 352.541 396.544
362.991 350.701 408.558
360.203 357.362 390.409
357.678 359.715 398.383
363.936 357.813 403.857
358.448 358.891 410.005
363.997 365.501 399.646
365.486 344.779 394.651
372.809 343.755 399.164
369.449 348.296 387.772
371.284 351.77 395.032
367.068 348.872 401.754
369.525 355.466 401.407
373.004 353.256 405.654
368.917 356.709 387.979
366.908 359.072 395.644
375.28 358.825 398.841

POINT_DATA 57
SCALARS radius double
LOOKUP_TABLE default
5.08931
5.07271
5.02621
5.02621
5.02621
5.08931
5.02621
5.03939
5.02621
5.09976
5.02621
5.08931
5.02621
5.07271
5.03939
5.08931
5.09976
5.09976
5.08931
5.07271
5.02621
5.07271
5.03939
5.02621
5.02621
5.0053
5.08931
5.09976
5.04636
5.08931
5.03939
5.02621
5.08931
5.08931
5.07271
5.07271
5.0053
5.03939
5.08931
5.02621
5.03939
5.09976
5.07271
5.08931
5.03939
5.03939
5.09976
5.07271
5.03939
5.08931
5.03939
5.09976
4.33939
4.23939
5.03939
5.09976
5.02621

SCALARS status double
LOOKUP_TABLE default
1
1
1
1
1
1
1
1
1
1
1
1
1
1
1
1
1
1
1
1
1
1
1
1
1
1
1
1
1
1
1
1
1
1
1
1
1
1
1
1
1
1
1
1
1
1
1
1
1
1
1
1
1
1
1
1
1

SCALARS concentration double
LOOKUP_TABLE default
25.7024
26.1829
28.4181
30.4545
27.3863
25.7024
25.7024
29.0396
28.6749
29.0559
25.7264
30.4559
29.6601
29.9508
29.0396
31.2761
28.7305
28.7305
30.4559
33.3889
30.4545
30.4978
31.723
31.3083
31.4686
31.7036
35.1081
30.5584
31.481
31.723
31.723
37.9708
37.0699
37.0699
31.2588
31.2588
33.5749
34.3697
35.6946
33.9412
37.8382
37.4082
38.263
39.2408
41.2122
38.3931
42.8656
35.7837
36.416
37.7898
40.2552
37.4082
41.3845
41.3845
41.981
42.8656
46.4653

SCALARS fibres double
LOOKUP_TABLE default
0
0
0
0
0
0
0
0
0
0
0
0
0
0
0
0
0
0
0
0
0
0
0
0
0
0
0
0
0
0
0
0
0
0
0
0
0
0
0
0
0
0
0
0
0
0
0
0
0
0
0
0
0
0
0
0
0

SCALARS phenot double
LOOKUP_TABLE default
7
7
7
7
7
7
7
7
7
7
7
7
7
7
7
7
7
7
7
7
7
7
7
7
7
7
7
7
7
7
7
7
7
7
7
7
7
7
7
7
7
7
7
7
7
7
7
7
7
7
7
7
7
7
7
7
7

SCALARS cont_pheno double
LOOKUP_TABLE default
0.5
0.5
0.5
0.5
0.5
0.5
0.5
0.5
0.5
0.5
0.5
0.5
0.5
0.5
0.5
0.5
0.5
0.5
0.5
0.5
0.5
0.5
0.5
0.5
0.5
0.5
0.5
0.5
0.5
0.5
0.5
0.5
0.5
0.5
0.5
0.5
0.5
0.5
0.5
0.5
0.5
0.5
0.5
0.5
0.5
0.5
0.5
0.5
0.5
0.5
0.5
0.5
0.5
0.5
0.5
0.5
0.5

SCALARS name double
LOOKUP_TABLE default
69
52
18
71
43
64
31
67
45
57
59
36
17
51
47
62
53
67
65
37
13
32
73
35
20
5
27
38
23
33
64
28
72
60
69
55
15
39
34
3
46
58
25
49
41
61
70
9
50
48
26
74
75
24
29
56
42

SCALARS interaction_phenotype double
LOOKUP_TABLE default
0
0
0
0
0
0
0
0
0
0
0
0
0
0
0
0
0
0
0
0
0
0
0
0
0
0
0
0
0
0
0
0
0
0
0
0
0
0
0
0
0
0
0
0
0
0
0
0
0
0
0
0
0
0
0
0
0

SCALARS vessel_interaction double
LOOKUP_TABLE default
0
0
0
0
0
0
0
0
0
0
0
0
0
0
0
0
0
0
0
0
0
0
0
0
0
0
0
0
0
0
0
0
0
0
0
0
0
0
0
0
0
0
0
0
0
0
0
0
0
0
0
0
0
0
0
0
0

SCALARS is_follower double
LOOKUP_TABLE default
1
1
1
1
1
1
1
1
1
1
1
1
1
1
1
1
1
1
1
1
1
1
1
1
1
1
1
1
1
1
1
1
1
1
1
1
1
1
1
1
1
1
1
1
1
1
1
1
1
1
1
1
1
1
1
1
1

SCALARS polarised double
LOOKUP_TABLE default
0
0
0
0
0
0
0
0
0
0
0
0
0
0
0
0
0
0
0
0
0
0
0
0
0
0
0
0
0
0
0
0
0
0
0
0
0
0
0
0
0
0
0
0
0
0
0
0
0
0
0
0
0
0
0
0
0

