# vtk DataFile Version 2.0
Unstructured grid legacy vtk file with point scalar data
ASCII

DATASET UNSTRUCTURED_GRID
POINTS 16 double
345.71 340.86 395.348
343.574 344.209 402.269
340.314 351.448 384.162
343.483 347.481 390.96
338.466 352.803 395.242
338.877 353.682 403.443
345.55 351.006 401.48
353.863 340.756 393.53
348.174 349.326 384.096
348.734 353.927 394.327
351.726 347.234 398.636
350.852 355.01 402.035
360.105 344.575 397.45
356.957 351.303 393.087
367.664 346.035 392.899
368.208 349.901 400.692

POINT_DATA 16
SCALARS radius double
LOOKUP_TABLE default
5.09809
5.09809
5.07271
5.0053
5.0053
5.0053
4.8053
5.03728
5.07271
5.04636
5.09809
4.7053
5.04636
5.04636
5.07271
5.07271

SCALARS status double
LOOKUP_TABLE default
1
1
1
1
1
1
1
1
1
1
1
1
1
1
1
1

SCALARS concentration double
LOOKUP_TABLE default
29.6494
29.3603
32.7338
32.7338
32.7338
32.7338
32.7338
30.8962
32.7338
32.7338
32.7334
32.7338
34.5801
34.5801
36.8292
36.8292

SCALARS fibres double
LOOKUP_TABLE default
0
0
0
0
0
0
0
0
0
0
0
0
0
0
0
0

SCALARS phenot double
LOOKUP_TABLE default
7
7
7
7
7
7
7
7
7
7
7
7
7
7
7
7

SCALARS cont_pheno double
LOOKUP_TABLE default
0.5
0.5
0.5
0.5
0.5
0.5
0.5
0.5
0.5
0.5
0.5
0.5
0.5
0.5
0.5
0.5

SCALARS name double
LOOKUP_TABLE default
2
12
17
19
13
18
21
8
20
5
6
14
15
3
9
16

SCALARS interaction_phenotype double
LOOKUP_TABLE default
0
0
0
0
0
0
0
0
0
0
0
0
0
0
0
0

SCALARS vessel_interaction double
LOOKUP_TABLE default
0
0
0
0
0
0
0
0
0
0
0
0
0
0
0
0

SCALARS is_follower double
LOOKUP_TABLE default
1
1
1
1
1
1
1
1
1
1
1
1
1
1
1
1

SCALARS polarised double
LOOKUP_TABLE default
0
0
0
0
0
0
0
0
0
0
0
0
0
0
0
0

