# vtk DataFile Version 2.0
Unstructured grid legacy vtk file with point scalar data
ASCII

DATASET UNSTRUCTURED_GRID
POINTS 4 double
348.326 344.554 396.65
351.617 353.085 388.835
348.116 353.148 396.539
355.592 349.125 395.521

POINT_DATA 4
SCALARS radius double
LOOKUP_TABLE default
5.08666
5.03728
5.03728
5.08666

SCALARS status double
LOOKUP_TABLE default
1
1
1
1

SCALARS concentration double
LOOKUP_TABLE default
30.8408
33.9848
33.9848
33.9848

SCALARS fibres double
LOOKUP_TABLE default
0
0
0
0

SCALARS phenot double
LOOKUP_TABLE default
7
7
7
7

SCALARS cont_pheno double
LOOKUP_TABLE default
0.5
0.5
0.5
0.5

SCALARS name double
LOOKUP_TABLE default
2
1
5
3

SCALARS interaction_phenotype double
LOOKUP_TABLE default
0
0
0
0

SCALARS vessel_interaction double
LOOKUP_TABLE default
0
0
0
0

SCALARS is_follower double
LOOKUP_TABLE default
1
1
1
1

SCALARS polarised double
LOOKUP_TABLE default
0
0
0
0

