# vtk DataFile Version 2.0
Unstructured grid legacy vtk file with point scalar data
ASCII

DATASET UNSTRUCTURED_GRID
POINTS 48 double
334.852 354.105 404.208
328.692 357.333 398.65
339.06 335.805 399.007
336.021 342.151 404.181
343.337 343.606 413.863
338.397 343.498 420.243
337.596 337.777 417.63
340.879 351.157 381.77
340.922 346.569 389.815
339.073 354.559 389.148
345.641 352.218 393.444
338.271 350.768 397.286
342.009 346.628 403.622
338.977 348.989 409.296
339.671 355.627 374.916
336.427 359.103 395.061
344.991 360.035 390.293
341.652 356.518 410.078
351.052 345.335 378.176
348.814 344.526 392.462
346.859 336.263 395.434
348.158 349.124 385.685
353.36 353.909 395.075
345.746 346.466 398.77
349.041 347.531 408.42
350.205 347.805 416.841
354.269 361.678 388.083
349.396 364.689 388.952
359.098 338.055 394.706
358.659 344.522 399.733
357.553 349.945 377.363
361.286 349.822 384.951
357.277 347.128 392.002
365.445 346.158 394.342
363.248 353.061 396.57
362.66 351.87 402.735
360.225 356.133 390.559
357.747 359.435 398.599
363.027 358.311 405.271
359.153 358.585 408.58
372.091 343.573 398.83
369.436 349.204 387.627
372.344 351.371 395.876
371.899 353.774 403.917
370.078 350.899 411.899
368.587 356.714 388.542
367.389 358.468 395.606
375.045 359.814 397.638

POINT_DATA 48
SCALARS radius double
LOOKUP_TABLE default
5.02621
5.02621
5.07271
5.07271
5.02621
4.22621
4.32621
5.02621
5.07271
5.07271
5.0053
5.08931
4.69976
5.03939
5.02621
5.07271
5.07271
5.02621
5.02621
5.07271
5.09809
5.02621
5.08931
4.69976
5.04636
5.02621
4.22621
4.22621
5.0053
5.0053
5.03939
5.08931
5.02621
5.07271
4.43939
4.43939
5.07271
5.08931
4.03939
4.13939
5.03939
5.08931
5.03939
5.08931
5.08931
4.83939
4.93939
5.02621

SCALARS status double
LOOKUP_TABLE default
1
1
1
1
1
1
1
1
1
1
1
1
1
1
1
1
1
1
1
1
1
1
1
1
1
1
1
1
1
1
1
1
1
1
1
1
1
1
1
1
1
1
1
1
1
1
1
1

SCALARS concentration double
LOOKUP_TABLE default
29.0073
29.0073
26.2818
26.2818
30.6782
27.6812
27.6812
29.9268
28.6278
30.2217
32.9747
29.741
29.741
29.741
30.5222
30.2217
33.6183
29.741
30.9037
30.4638
27.7244
31.6568
36.3261
29.741
31.7788
30.6782
36.0006
36.0006
33.3776
33.3776
35.5682
35.5682
34.4034
36.3764
36.3261
36.3261
38.2201
36.3261
36.3261
36.3261
39.921
40.9003
39.921
39.8169
39.8169
40.9003
40.9003
40.9003

SCALARS fibres double
LOOKUP_TABLE default
0
0
0
0
0
0
0
0
0
0
0
0
0
0
0
0
0
0
0
0
0
0
0
0
0
0
0
0
0
0
0
0
0
0
0
0
0
0
0
0
0
0
0
0
0
0
0
0

SCALARS phenot double
LOOKUP_TABLE default
7
7
7
7
7
7
7
7
7
7
7
7
7
7
7
7
7
7
7
7
7
7
7
7
7
7
7
7
7
7
7
7
7
7
7
7
7
7
7
7
7
7
7
7
7
7
7
7

SCALARS cont_pheno double
LOOKUP_TABLE default
0.5
0.5
0.5
0.5
0.5
0.5
0.5
0.5
0.5
0.5
0.5
0.5
0.5
0.5
0.5
0.5
0.5
0.5
0.5
0.5
0.5
0.5
0.5
0.5
0.5
0.5
0.5
0.5
0.5
0.5
0.5
0.5
0.5
0.5
0.5
0.5
0.5
0.5
0.5
0.5
0.5
0.5
0.5
0.5
0.5
0.5
0.5
0.5

SCALARS name double
LOOKUP_TABLE default
18
43
31
52
45
30
59
17
19
51
5
47
57
53
36
13
37
40
35
32
2
20
27
38
23
33
28
60
55
15
39
34
3
9
46
58
25
49
41
61
50
48
26
24
55
29
56
42

SCALARS interaction_phenotype double
LOOKUP_TABLE default
0
0
0
0
0
0
0
0
0
0
0
0
0
0
0
0
0
0
0
0
0
0
0
0
0
0
0
0
0
0
0
0
0
0
0
0
0
0
0
0
0
0
0
0
0
0
0
0

SCALARS vessel_interaction double
LOOKUP_TABLE default
0
0
0
0
0
0
0
0
0
0
0
0
0
0
0
0
0
0
0
0
0
0
0
0
0
0
0
0
0
0
0
0
0
0
0
0
0
0
0
0
0
0
0
0
0
0
0
0

SCALARS is_follower double
LOOKUP_TABLE default
1
1
1
1
1
1
1
1
1
1
1
1
1
1
1
1
1
1
1
1
1
1
1
1
1
1
1
1
1
1
1
1
1
1
1
1
1
1
1
1
1
1
1
1
1
1
1
1

SCALARS polarised double
LOOKUP_TABLE default
0
0
0
0
0
0
0
0
0
0
0
0
0
0
0
0
0
0
0
0
0
0
0
0
0
0
0
0
0
0
0
0
0
0
0
0
0
0
0
0
0
0
0
0
0
0
0
0

