# vtk DataFile Version 2.0
Unstructured grid legacy vtk file with point scalar data
ASCII

DATASET UNSTRUCTURED_GRID
POINTS 39 double
335.205 354.136 403.462
329.827 358.149 398.535
339.332 338.482 400.554
342.663 345.412 412.013
339.097 342.563 418.975
340.614 351.902 382.616
341.007 348.038 390.164
340.502 354.336 390.699
341.603 346.888 404.373
339.213 350.83 397.419
340.75 353.72 409.538
339.346 355.852 374.905
336.644 357.263 393.805
345.269 358.981 389.952
350.463 345.306 378.309
348.535 344.628 392.425
345.919 336.639 395.2
353.779 354.905 383.368
348 349.65 385.749
346.342 352.092 394.674
352.785 353.949 395.299
349.779 347.598 407.6
349.385 347.375 416.089
352.764 362.106 388.038
365.15 345.621 393.586
358.891 342.102 398.179
357.452 350.385 378.011
361.776 349.689 385.226
356.898 347.876 392.028
364.312 355.246 397.844
359.217 356.251 390.082
357.276 358.13 397.851
362.128 358.234 405.091
372.137 344.257 398.467
370.036 349.348 387.938
373.143 351.063 395.549
371.225 353.002 406.738
368.077 356.465 391.12
373.537 358.84 396.549

POINT_DATA 39
SCALARS radius double
LOOKUP_TABLE default
5.02621
5.02621
5.0053
5.02621
5.07271
5.02621
5.07271
4.07271
5.08931
5.08931
5.02621
5.02621
4.17271
5.07271
5.02621
5.07271
5.09809
5.03939
5.02621
5.0053
4.68931
5.04636
5.02621
5.07271
5.07271
5.04636
5.03939
5.08931
5.02621
5.08931
5.07271
4.78931
5.08931
4.83939
5.08931
4.83939
5.02621
5.08931
5.02621

SCALARS status double
LOOKUP_TABLE default
1
1
1
1
1
1
1
1
1
1
1
1
1
1
1
1
1
1
1
1
1
1
1
1
1
1
1
1
1
1
1
1
1
1
1
1
1
1
1

SCALARS concentration double
LOOKUP_TABLE default
29.0073
29.0073
26.2818
30.6782
27.6812
29.9268
28.6278
30.2217
29.741
29.741
29.741
30.5222
30.2217
33.6183
30.9037
30.4638
27.7244
35.5682
31.6568
32.9747
36.3261
31.7788
30.6782
36.0006
36.3764
33.3776
35.5682
35.5682
34.4034
36.3261
38.2201
36.3261
36.3261
39.921
40.9003
39.921
39.8169
40.9003
40.9003

SCALARS fibres double
LOOKUP_TABLE default
0
0
0
0
0
0
0
0
0
0
0
0
0
0
0
0
0
0
0
0
0
0
0
0
0
0
0
0
0
0
0
0
0
0
0
0
0
0
0

SCALARS phenot double
LOOKUP_TABLE default
7
7
7
7
7
7
7
7
7
7
7
7
7
7
7
7
7
7
7
7
7
7
7
7
7
7
7
7
7
7
7
7
7
7
7
7
7
7
7

SCALARS cont_pheno double
LOOKUP_TABLE default
0.5
0.5
0.5
0.5
0.5
0.5
0.5
0.5
0.5
0.5
0.5
0.5
0.5
0.5
0.5
0.5
0.5
0.5
0.5
0.5
0.5
0.5
0.5
0.5
0.5
0.5
0.5
0.5
0.5
0.5
0.5
0.5
0.5
0.5
0.5
0.5
0.5
0.5
0.5

SCALARS name double
LOOKUP_TABLE default
18
43
31
45
30
17
19
51
38
47
40
36
13
37
35
32
2
44
20
5
27
23
33
28
9
15
39
34
3
46
25
49
41
50
48
26
24
29
42

SCALARS interaction_phenotype double
LOOKUP_TABLE default
0
0
0
0
0
0
0
0
0
0
0
0
0
0
0
0
0
0
0
0
0
0
0
0
0
0
0
0
0
0
0
0
0
0
0
0
0
0
0

SCALARS vessel_interaction double
LOOKUP_TABLE default
0
0
0
0
0
0
0
0
0
0
0
0
0
0
0
0
0
0
0
0
0
0
0
0
0
0
0
0
0
0
0
0
0
0
0
0
0
0
0

SCALARS is_follower double
LOOKUP_TABLE default
1
1
1
1
1
1
1
1
1
1
1
1
1
1
1
1
1
1
1
1
1
1
1
1
1
1
1
1
1
1
1
1
1
1
1
1
1
1
1

SCALARS polarised double
LOOKUP_TABLE default
0
0
0
0
0
0
0
0
0
0
0
0
0
0
0
0
0
0
0
0
0
0
0
0
0
0
0
0
0
0
0
0
0
0
0
0
0
0
0

