# vtk DataFile Version 2.0
Unstructured grid legacy vtk file with point scalar data
ASCII

DATASET UNSTRUCTURED_GRID
POINTS 21 double
343.856 343.543 401.967
341.726 344.279 410.298
340.201 351.597 383.931
344.13 348.075 391.052
338.67 353.259 395.319
336.658 354.303 403.644
344.673 352.172 401.429
346.061 340.037 394.09
354.711 340.132 392.908
348.266 347.959 383.733
348.35 354.974 394.1
354.212 351.962 395.71
350.008 346.153 397.247
350.668 347.481 406.021
360.293 344.169 397.749
357.948 349.016 391.316
362.115 355.849 391.098
367.151 345.708 392.091
365.658 349.515 399.896
372.859 351.386 395.883
369.192 353.103 406.439

POINT_DATA 21
SCALARS radius double
LOOKUP_TABLE default
5.04636
5.04636
5.07271
5.0053
5.0053
5.0053
5.0053
5.09809
5.03728
5.07271
5.04636
4.37271
5.04636
5.04636
5.04636
4.47271
5.0053
5.07271
5.08931
5.08931
5.02621

SCALARS status double
LOOKUP_TABLE default
1
1
1
1
1
1
1
1
1
1
1
1
1
1
1
1
1
1
1
1
1

SCALARS concentration double
LOOKUP_TABLE default
28.8746
28.7218
29.6663
30.1279
29.6007
29.6347
31.5165
28.7816
30.841
31.6061
33.4574
35.1149
32.2052
32.3133
33.6599
35.1149
35.1149
36.2966
38.6303
38.6303
39.5824

SCALARS fibres double
LOOKUP_TABLE default
0
0
0
0
0
0
0
0
0
0
0
0
0
0
0
0
0
0
0
0
0

SCALARS phenot double
LOOKUP_TABLE default
7
7
7
7
7
7
7
7
7
7
7
7
7
7
7
7
7
7
7
7
7

SCALARS cont_pheno double
LOOKUP_TABLE default
0.5
0.5
0.5
0.5
0.5
0.5
0.5
0.5
0.5
0.5
0.5
0.5
0.5
0.5
0.5
0.5
0.5
0.5
0.5
0.5
0.5

SCALARS name double
LOOKUP_TABLE default
12
22
17
19
13
18
21
2
8
20
5
27
6
23
15
3
25
9
16
26
24

SCALARS interaction_phenotype double
LOOKUP_TABLE default
0
0
0
0
0
0
0
0
0
0
0
0
0
0
0
0
0
0
0
0
0

SCALARS vessel_interaction double
LOOKUP_TABLE default
0
0
0
0
0
0
0
0
0
0
0
0
0
0
0
0
0
0
0
0
0

SCALARS is_follower double
LOOKUP_TABLE default
1
1
1
1
1
1
1
1
1
1
1
1
1
1
1
1
1
1
1
1
1

SCALARS polarised double
LOOKUP_TABLE default
0
0
0
0
0
0
0
0
0
0
0
0
0
0
0
0
0
0
0
0
0

