# vtk DataFile Version 2.0
Unstructured grid legacy vtk file with point scalar data
ASCII

DATASET UNSTRUCTURED_GRID
POINTS 22 double
345.673 339.947 394.146
343.665 343.467 401.931
342.116 344.542 410.156
340.63 351.445 384.082
343.481 347.607 391.274
339.399 353.558 395.148
336.626 354.608 403.337
344.734 351.978 401.601
354.227 340.997 392.657
348.256 347.496 383.832
347.228 353.875 394.852
349.648 346.966 396.928
350.88 346.85 405.276
348.971 357.163 389.311
361.037 343.474 397.303
358.781 347.361 389.915
355.696 352.397 396.047
361.472 355.669 390.995
367.04 345.854 392.295
365.836 350.098 399.499
373.682 350.747 395.899
369.487 353.535 406.44

POINT_DATA 22
SCALARS radius double
LOOKUP_TABLE default
5.09809
5.04636
5.04636
5.07271
5.0053
5.0053
5.0053
5.0053
5.03728
5.07271
4.5053
5.04636
5.04636
4.5053
5.04636
5.07271
5.07271
5.0053
5.07271
5.08931
5.08931
5.02621

SCALARS status double
LOOKUP_TABLE default
1
1
1
1
1
1
1
1
1
1
1
1
1
1
1
1
1
1
1
1
1
1

SCALARS concentration double
LOOKUP_TABLE default
28.7816
28.8746
28.7218
29.6663
30.1279
29.6007
29.6347
31.5165
30.841
31.6061
33.4574
32.2052
32.3133
33.4574
33.6599
35.1149
35.1149
35.1149
36.2966
38.6303
38.6303
39.5824

SCALARS fibres double
LOOKUP_TABLE default
0
0
0
0
0
0
0
0
0
0
0
0
0
0
0
0
0
0
0
0
0
0

SCALARS phenot double
LOOKUP_TABLE default
7
7
7
7
7
7
7
7
7
7
7
7
7
7
7
7
7
7
7
7
7
7

SCALARS cont_pheno double
LOOKUP_TABLE default
0.5
0.5
0.5
0.5
0.5
0.5
0.5
0.5
0.5
0.5
0.5
0.5
0.5
0.5
0.5
0.5
0.5
0.5
0.5
0.5
0.5
0.5

SCALARS name double
LOOKUP_TABLE default
2
12
22
17
19
13
18
21
8
20
5
6
23
28
15
3
27
25
9
16
26
24

SCALARS interaction_phenotype double
LOOKUP_TABLE default
0
0
0
0
0
0
0
0
0
0
0
0
0
0
0
0
0
0
0
0
0
0

SCALARS vessel_interaction double
LOOKUP_TABLE default
0
0
0
0
0
0
0
0
0
0
0
0
0
0
0
0
0
0
0
0
0
0

SCALARS is_follower double
LOOKUP_TABLE default
1
1
1
1
1
1
1
1
1
1
1
1
1
1
1
1
1
1
1
1
1
1

SCALARS polarised double
LOOKUP_TABLE default
0
0
0
0
0
0
0
0
0
0
0
0
0
0
0
0
0
0
0
0
0
0

